# Residuals  
# Time       	p            	Ux           	Uy           
0.001        	1.000000e+00	N/A
0.002        	2.547130e-02	N/A
0.003        	2.675880e-01	N/A
0.004        	1.472150e-01	N/A
0.005        	1.464870e-01	N/A
0.006        	1.492410e-01	N/A
0.007        	1.486000e-01	N/A
0.008        	1.466740e-01	N/A
0.009        	1.446080e-01	N/A
0.01         	1.411150e-01	N/A
0.011        	1.401080e-01	N/A
0.012        	1.389140e-01	N/A
0.013        	1.362790e-01	N/A
0.014        	1.353290e-01	N/A
0.015        	1.336970e-01	N/A
0.016        	1.340090e-01	N/A
0.017        	1.275410e-01	N/A
0.018        	1.332690e-01	N/A
0.019        	1.347920e-01	N/A
0.02         	1.255670e-01	N/A
0.021        	1.314360e-01	N/A
0.022        	1.386910e-01	N/A
0.023        	1.414500e-01	N/A
0.024        	1.384560e-01	N/A
0.025        	1.432620e-01	N/A
0.026        	1.472780e-01	N/A
0.027        	1.373370e-01	N/A
0.028        	1.496140e-01	N/A
0.029        	1.382150e-01	N/A
0.03         	1.509190e-01	N/A
0.031        	1.508730e-01	N/A
0.032        	1.494900e-01	N/A
0.033        	1.507810e-01	N/A
0.034        	1.517240e-01	N/A
0.035        	1.485670e-01	N/A
0.036        	1.542720e-01	N/A
0.037        	1.511660e-01	N/A
0.038        	1.502790e-01	N/A
0.039        	1.519960e-01	N/A
0.04         	1.453860e-01	N/A
0.041        	1.509840e-01	N/A
0.042        	1.539570e-01	N/A
0.043        	1.515550e-01	N/A
0.044        	1.499880e-01	N/A
0.045        	1.474770e-01	N/A
0.046        	1.463640e-01	N/A
0.047        	1.539790e-01	N/A
0.048        	1.514000e-01	N/A
0.049        	1.478370e-01	N/A
0.05         	1.421610e-01	N/A
0.051        	1.527750e-01	N/A
0.052        	1.491070e-01	N/A
0.053        	1.515820e-01	N/A
0.054        	1.469310e-01	N/A
0.055        	1.482690e-01	N/A
0.056        	1.514880e-01	N/A
0.057        	1.513420e-01	N/A
0.058        	1.468430e-01	N/A
0.059        	1.499600e-01	N/A
0.06         	1.468280e-01	N/A
0.061        	1.459790e-01	N/A
0.062        	1.462490e-01	N/A
0.063        	1.496330e-01	N/A
0.064        	1.455260e-01	N/A
0.065        	1.481070e-01	N/A
0.066        	1.463160e-01	N/A
0.067        	1.439770e-01	N/A
0.068        	1.475310e-01	N/A
0.069        	1.446750e-01	N/A
0.07         	1.440780e-01	N/A
0.071        	1.447590e-01	N/A
0.072        	1.468480e-01	N/A
0.073        	1.466940e-01	N/A
0.074        	1.457990e-01	N/A
0.075        	1.500100e-01	N/A
0.076        	1.490850e-01	N/A
0.077        	1.482150e-01	N/A
0.078        	1.504350e-01	N/A
0.079        	1.495450e-01	N/A
0.08         	1.548080e-01	N/A
0.081        	1.623550e-01	N/A
0.082        	1.577960e-01	N/A
0.083        	1.590510e-01	N/A
0.084        	1.605680e-01	N/A
0.085        	1.571480e-01	N/A
0.086        	1.619570e-01	N/A
0.087        	1.641110e-01	N/A
0.088        	1.550740e-01	N/A
0.089        	1.653240e-01	N/A
0.09         	1.596050e-01	N/A
0.091        	1.578150e-01	N/A
0.092        	1.597340e-01	N/A
0.093        	1.570560e-01	N/A
0.094        	1.597260e-01	N/A
0.095        	1.577070e-01	N/A
0.096        	1.608900e-01	N/A
0.097        	1.593110e-01	N/A
0.098        	1.594830e-01	N/A
0.099        	1.617380e-01	N/A
0.1          	1.625790e-01	N/A
0.101        	1.617860e-01	N/A
0.102        	1.644050e-01	N/A
0.103        	1.658600e-01	N/A
0.104        	1.652450e-01	N/A
0.105        	1.695460e-01	N/A
0.106        	1.663420e-01	N/A
0.107        	1.756890e-01	N/A
0.108        	1.692960e-01	N/A
0.109        	1.789680e-01	N/A
0.11         	1.739700e-01	N/A
0.111        	1.792920e-01	N/A
0.112        	1.772380e-01	N/A
0.113        	1.800690e-01	N/A
0.114        	1.777180e-01	N/A
0.115        	1.789160e-01	N/A
0.116        	1.822800e-01	N/A
0.117        	1.850680e-01	N/A
0.118        	1.883810e-01	N/A
0.119        	1.899620e-01	N/A
0.12         	1.879140e-01	N/A
0.121        	1.866210e-01	N/A
0.122        	1.904650e-01	N/A
0.123        	1.890190e-01	N/A
0.124        	1.864960e-01	N/A
0.125        	1.887040e-01	N/A
0.126        	1.911190e-01	N/A
0.127        	1.876180e-01	N/A
0.128        	1.954250e-01	N/A
0.129        	1.940410e-01	N/A
0.13         	1.969420e-01	N/A
0.131        	1.926920e-01	N/A
0.132        	1.988690e-01	N/A
0.133        	1.960410e-01	N/A
0.134        	2.000980e-01	N/A
0.135        	2.005570e-01	N/A
0.136        	2.019750e-01	N/A
0.137        	2.074880e-01	N/A
0.138        	2.057780e-01	N/A
0.139        	2.110390e-01	N/A
0.14         	2.129380e-01	N/A
0.141        	2.126370e-01	N/A
0.142        	2.146640e-01	N/A
0.143        	2.130490e-01	N/A
0.144        	2.143660e-01	N/A
0.145        	2.137540e-01	N/A
0.146        	2.106270e-01	N/A
0.147        	2.118150e-01	N/A
0.148        	2.062940e-01	N/A
0.149        	2.037890e-01	N/A
0.15         	2.070670e-01	N/A
0.151        	2.013100e-01	N/A
0.152        	2.049620e-01	N/A
0.153        	2.019540e-01	N/A
0.154        	2.058440e-01	N/A
0.155        	2.047510e-01	N/A
0.156        	2.057010e-01	N/A
0.157        	2.149730e-01	N/A
0.158        	2.083420e-01	N/A
0.159        	2.126660e-01	N/A
0.16         	2.134170e-01	N/A
0.161        	2.089660e-01	N/A
0.162        	2.107700e-01	N/A
0.163        	2.086080e-01	N/A
0.164        	2.102990e-01	N/A
0.165        	2.156000e-01	N/A
0.166        	2.137470e-01	N/A
0.167        	2.116150e-01	N/A
0.168        	2.140210e-01	N/A
0.169        	2.162180e-01	N/A
0.17         	2.139020e-01	N/A
0.171        	2.182800e-01	N/A
0.172        	2.219920e-01	N/A
0.173        	2.217090e-01	N/A
0.174        	2.275090e-01	N/A
0.175        	2.268110e-01	N/A
0.176        	2.311710e-01	N/A
0.177        	2.302030e-01	N/A
0.178        	2.342580e-01	N/A
0.179        	2.358570e-01	N/A
0.18         	2.334320e-01	N/A
0.181        	2.295950e-01	N/A
0.182        	2.263660e-01	N/A
0.183        	2.236380e-01	N/A
0.184        	2.223340e-01	N/A
0.185        	2.230780e-01	N/A
0.186        	2.183180e-01	N/A
0.187        	2.158690e-01	N/A
0.188        	2.136820e-01	N/A
0.189        	2.150150e-01	N/A
0.19         	2.151340e-01	N/A
0.191        	2.150120e-01	N/A
0.192        	2.171740e-01	N/A
0.193        	2.167190e-01	N/A
0.194        	2.143700e-01	N/A
0.195        	2.142340e-01	N/A
0.196        	2.134640e-01	N/A
0.197        	2.132080e-01	N/A
0.198        	2.150170e-01	N/A
0.199        	2.180590e-01	N/A
0.2          	2.199430e-01	N/A
0.201        	2.229850e-01	N/A
0.202        	2.250970e-01	N/A
0.203        	2.261300e-01	N/A
0.204        	2.297820e-01	N/A
0.205        	2.324340e-01	N/A
0.206        	2.365810e-01	N/A
0.207        	2.374280e-01	N/A
0.208        	2.392070e-01	N/A
0.209        	2.368560e-01	N/A
0.21         	2.331820e-01	N/A
0.211        	2.302760e-01	N/A
0.212        	2.239960e-01	N/A
0.213        	2.201850e-01	N/A
0.214        	2.198510e-01	N/A
0.215        	2.234320e-01	N/A
0.216        	2.234790e-01	N/A
0.217        	2.275350e-01	N/A
0.218        	2.282550e-01	N/A
0.219        	2.317310e-01	N/A
0.22         	2.341710e-01	N/A
0.221        	2.350650e-01	N/A
0.222        	2.369430e-01	N/A
0.223        	2.372110e-01	N/A
0.224        	2.335840e-01	N/A
0.225        	2.321520e-01	N/A
0.226        	2.299930e-01	N/A
0.227        	2.298910e-01	N/A
0.228        	2.287200e-01	N/A
0.229        	2.328950e-01	N/A
0.23         	2.346000e-01	N/A
0.231        	2.376830e-01	N/A
0.232        	2.447290e-01	N/A
0.233        	2.466010e-01	N/A
0.234        	2.476310e-01	N/A
0.235        	2.455720e-01	N/A
0.236        	2.449390e-01	N/A
0.237        	2.458060e-01	N/A
0.238        	2.438180e-01	N/A
0.239        	2.420600e-01	N/A
0.24         	2.380790e-01	N/A
0.241        	2.349000e-01	N/A
0.242        	2.352840e-01	N/A
0.243        	2.332540e-01	N/A
0.244        	2.338450e-01	N/A
0.245        	2.356640e-01	N/A
0.246        	2.366410e-01	N/A
0.247        	2.389140e-01	N/A
0.248        	2.388530e-01	N/A
0.249        	2.380760e-01	N/A
0.25         	2.330900e-01	N/A
0.251        	2.335180e-01	N/A
0.252        	2.323480e-01	N/A
0.253        	2.334680e-01	N/A
0.254        	2.318770e-01	N/A
0.255        	2.338030e-01	N/A
0.256        	2.357250e-01	N/A
0.257        	2.343670e-01	N/A
0.258        	2.391450e-01	N/A
0.259        	2.431060e-01	N/A
0.26         	2.477820e-01	N/A
0.261        	2.529430e-01	N/A
0.262        	2.499040e-01	N/A
0.263        	2.460680e-01	N/A
0.264        	2.426250e-01	N/A
0.265        	2.420880e-01	N/A
0.266        	2.397640e-01	N/A
0.267        	2.412670e-01	N/A
0.268        	2.435210e-01	N/A
0.269        	2.464340e-01	N/A
0.27         	2.488260e-01	N/A
0.271        	2.502880e-01	N/A
0.272        	2.497750e-01	N/A
0.273        	2.485160e-01	N/A
0.274        	2.433540e-01	N/A
0.275        	2.404930e-01	N/A
0.276        	2.376540e-01	N/A
0.277        	2.379580e-01	N/A
0.278        	2.361380e-01	N/A
0.279        	2.356360e-01	N/A
0.28         	2.373570e-01	N/A
0.281        	2.378820e-01	N/A
0.282        	2.415360e-01	N/A
0.283        	2.436630e-01	N/A
0.284        	2.470180e-01	N/A
0.285        	2.499810e-01	N/A
0.286        	2.482990e-01	N/A
0.287        	2.495750e-01	N/A
0.288        	2.502240e-01	N/A
0.289        	2.498830e-01	N/A
0.29         	2.527040e-01	N/A
0.291        	2.542570e-01	N/A
0.292        	2.569100e-01	N/A
0.293        	2.570300e-01	N/A
0.294        	2.539000e-01	N/A
0.295        	2.505860e-01	N/A
0.296        	2.467460e-01	N/A
0.297        	2.414910e-01	N/A
0.298        	2.391450e-01	N/A
0.299        	2.374120e-01	N/A
0.3          	2.394570e-01	N/A
0.301        	2.431740e-01	N/A
0.302        	2.466890e-01	N/A
0.303        	2.462560e-01	N/A
0.304        	2.434510e-01	N/A
0.305        	2.449560e-01	N/A
0.306        	2.466370e-01	N/A
0.307        	2.472560e-01	N/A
0.308        	2.513570e-01	N/A
0.309        	2.514620e-01	N/A
0.31         	2.538160e-01	N/A
0.311        	2.544980e-01	N/A
0.312        	2.549120e-01	N/A
0.313        	2.576470e-01	N/A
0.314        	2.564960e-01	N/A
0.315        	2.550160e-01	N/A
0.316        	2.530820e-01	N/A
0.317        	2.503050e-01	N/A
0.318        	2.495270e-01	N/A
0.319        	2.500600e-01	N/A
0.32         	2.509490e-01	N/A
0.321        	2.503010e-01	N/A
0.322        	2.500530e-01	N/A
0.323        	2.506630e-01	N/A
0.324        	2.503670e-01	N/A
0.325        	2.493650e-01	N/A
0.326        	2.510400e-01	N/A
0.327        	2.523550e-01	N/A
0.328        	2.526880e-01	N/A
0.329        	2.546650e-01	N/A
0.33         	2.558780e-01	N/A
0.331        	2.551270e-01	N/A
0.332        	2.580200e-01	N/A
0.333        	2.611250e-01	N/A
0.334        	2.608570e-01	N/A
0.335        	2.601550e-01	N/A
0.336        	2.590490e-01	N/A
0.337        	2.586480e-01	N/A
0.338        	2.588790e-01	N/A
0.339        	2.579480e-01	N/A
0.34         	2.588690e-01	N/A
0.341        	2.572910e-01	N/A
0.342        	2.558640e-01	N/A
0.343        	2.539470e-01	N/A
0.344        	2.510370e-01	N/A
0.345        	2.490580e-01	N/A
0.346        	2.514870e-01	N/A
0.347        	2.540170e-01	N/A
0.348        	2.573480e-01	N/A
0.349        	2.564980e-01	N/A
0.35         	2.570090e-01	N/A
0.351        	2.587990e-01	N/A
0.352        	2.604330e-01	N/A
0.353        	2.600580e-01	N/A
0.354        	2.602430e-01	N/A
0.355        	2.612110e-01	N/A
0.356        	2.622590e-01	N/A
0.357        	2.629880e-01	N/A
0.358        	2.640250e-01	N/A
0.359        	2.645050e-01	N/A
0.36         	2.649240e-01	N/A
0.361        	2.621400e-01	N/A
0.362        	2.600640e-01	N/A
0.363        	2.546520e-01	N/A
0.364        	2.542580e-01	N/A
0.365        	2.544480e-01	N/A
0.366        	2.570100e-01	N/A
0.367        	2.568030e-01	N/A
0.368        	2.577770e-01	N/A
0.369        	2.594150e-01	N/A
0.37         	2.607950e-01	N/A
0.371        	2.624540e-01	N/A
0.372        	2.625110e-01	N/A
0.373        	2.644300e-01	N/A
0.374        	2.662070e-01	N/A
0.375        	2.675270e-01	N/A
0.376        	2.682040e-01	N/A
0.377        	2.686570e-01	N/A
0.378        	2.674770e-01	N/A
0.379        	2.649820e-01	N/A
0.38         	2.632380e-01	N/A
0.381        	2.600920e-01	N/A
0.382        	2.569300e-01	N/A
0.383        	2.574350e-01	N/A
0.384        	2.604580e-01	N/A
0.385        	2.623620e-01	N/A
0.386        	2.612170e-01	N/A
0.387        	2.623900e-01	N/A
0.388        	2.626460e-01	N/A
0.389        	2.638770e-01	N/A
0.39         	2.659150e-01	N/A
0.391        	2.683910e-01	N/A
0.392        	2.693410e-01	N/A
0.393        	2.713420e-01	N/A
0.394        	2.706320e-01	N/A
0.395        	2.684890e-01	N/A
0.396        	2.685140e-01	N/A
0.397        	2.669930e-01	N/A
0.398        	2.659980e-01	N/A
0.399        	2.637750e-01	N/A
0.4          	2.640160e-01	N/A
0.401        	2.628820e-01	N/A
0.402        	2.633460e-01	N/A
0.403        	2.642250e-01	N/A
0.404        	2.654940e-01	N/A
0.405        	2.658470e-01	N/A
0.406        	2.667190e-01	N/A
0.407        	2.675830e-01	N/A
0.408        	2.695050e-01	N/A
0.409        	2.726750e-01	N/A
0.41         	2.723940e-01	N/A
0.411        	2.702330e-01	N/A
0.412        	2.708980e-01	N/A
0.413        	2.711990e-01	N/A
0.414        	2.707200e-01	N/A
0.415        	2.686620e-01	N/A
0.416        	2.673520e-01	N/A
0.417        	2.665750e-01	N/A
0.418        	2.654980e-01	N/A
0.419        	2.645920e-01	N/A
0.42         	2.663380e-01	N/A
0.421        	2.676350e-01	N/A
0.422        	2.678560e-01	N/A
0.423        	2.689300e-01	N/A
0.424        	2.700810e-01	N/A
0.425        	2.706870e-01	N/A
0.426        	2.700560e-01	N/A
0.427        	2.735840e-01	N/A
0.428        	2.728880e-01	N/A
0.429        	2.735740e-01	N/A
0.43         	2.737040e-01	N/A
0.431        	2.729280e-01	N/A
0.432        	2.715430e-01	N/A
0.433        	2.691960e-01	N/A
0.434        	2.679720e-01	N/A
0.435        	2.678470e-01	N/A
0.436        	2.695440e-01	N/A
0.437        	2.704690e-01	N/A
0.438        	2.708640e-01	N/A
0.439        	2.712120e-01	N/A
0.44         	2.716530e-01	N/A
0.441        	2.701090e-01	N/A
0.442        	2.724340e-01	N/A
0.443        	2.743820e-01	N/A
0.444        	2.755260e-01	N/A
0.445        	2.772980e-01	N/A
0.446        	2.768610e-01	N/A
0.447        	2.755270e-01	N/A
0.448        	2.729060e-01	N/A
0.449        	2.711450e-01	N/A
0.45         	2.713370e-01	N/A
0.451        	2.711990e-01	N/A
0.452        	2.718890e-01	N/A
0.453        	2.710890e-01	N/A
0.454        	2.717350e-01	N/A
0.455        	2.706820e-01	N/A
0.456        	2.728900e-01	N/A
0.457        	2.729840e-01	N/A
0.458        	2.761200e-01	N/A
0.459        	2.778000e-01	N/A
0.46         	2.791500e-01	N/A
0.461        	2.785060e-01	N/A
0.462        	2.764210e-01	N/A
0.463        	2.745700e-01	N/A
0.464        	2.739630e-01	N/A
0.465        	2.742470e-01	N/A
0.466        	2.734880e-01	N/A
0.467        	2.736480e-01	N/A
0.468        	2.739180e-01	N/A
0.469        	2.728470e-01	N/A
0.47         	2.750340e-01	N/A
0.471        	2.752470e-01	N/A
0.472        	2.767150e-01	N/A
0.473        	2.771100e-01	N/A
0.474        	2.805300e-01	N/A
0.475        	2.791360e-01	N/A
0.476        	2.789110e-01	N/A
0.477        	2.791780e-01	N/A
0.478        	2.783990e-01	N/A
0.479        	2.772010e-01	N/A
0.48         	2.771130e-01	N/A
0.481        	2.760720e-01	N/A
0.482        	2.763710e-01	N/A
0.483        	2.750160e-01	N/A
0.484        	2.770160e-01	N/A
0.485        	2.780170e-01	N/A
0.486        	2.775860e-01	N/A
0.487        	2.782850e-01	N/A
0.488        	2.783660e-01	N/A
0.489        	2.798530e-01	N/A
0.49         	2.804030e-01	N/A
0.491        	2.809520e-01	N/A
0.492        	2.798820e-01	N/A
0.493        	2.780000e-01	N/A
0.494        	2.775150e-01	N/A
0.495        	2.766740e-01	N/A
0.496        	2.766540e-01	N/A
0.497        	2.787660e-01	N/A
0.498        	2.791130e-01	N/A
0.499        	2.794990e-01	N/A
0.5          	2.800400e-01	N/A
0.501        	2.785450e-01	N/A
0.502        	2.793770e-01	N/A
0.503        	2.791120e-01	N/A
0.504        	2.815880e-01	N/A
0.505        	2.828000e-01	N/A
0.506        	2.836870e-01	N/A
0.507        	2.838520e-01	N/A
0.508        	2.828070e-01	N/A
0.509        	2.805720e-01	N/A
0.51         	2.811340e-01	N/A
0.511        	2.807570e-01	N/A
0.512        	2.804210e-01	N/A
0.513        	2.797180e-01	N/A
0.514        	2.789190e-01	N/A
0.515        	2.801900e-01	N/A
0.516        	2.812460e-01	N/A
0.517        	2.821270e-01	N/A
0.518        	2.837430e-01	N/A
0.519        	2.832260e-01	N/A
0.52         	2.834070e-01	N/A
0.521        	2.817660e-01	N/A
0.522        	2.805000e-01	N/A
0.523        	2.808510e-01	N/A
0.524        	2.823390e-01	N/A
0.525        	2.820030e-01	N/A
0.526        	2.824900e-01	N/A
0.527        	2.814030e-01	N/A
0.528        	2.807680e-01	N/A
0.529        	2.824500e-01	N/A
0.53         	2.831570e-01	N/A
0.531        	2.843740e-01	N/A
0.532        	2.838970e-01	N/A
0.533        	2.833350e-01	N/A
0.534        	2.837820e-01	N/A
0.535        	2.826380e-01	N/A
0.536        	2.837260e-01	N/A
0.537        	2.845310e-01	N/A
0.538        	2.844580e-01	N/A
0.539        	2.838490e-01	N/A
0.54         	2.831570e-01	N/A
0.541        	2.821420e-01	N/A
0.542        	2.825090e-01	N/A
0.543        	2.855880e-01	N/A
0.544        	2.864040e-01	N/A
0.545        	2.850800e-01	N/A
0.546        	2.844200e-01	N/A
0.547        	2.844800e-01	N/A
0.548        	2.849480e-01	N/A
0.549        	2.854160e-01	N/A
0.55         	2.838770e-01	N/A
0.551        	2.834710e-01	N/A
0.552        	2.834500e-01	N/A
0.553        	2.843290e-01	N/A
0.554        	2.858910e-01	N/A
0.555        	2.859100e-01	N/A
0.556        	2.857000e-01	N/A
0.557        	2.844800e-01	N/A
0.558        	2.843990e-01	N/A
0.559        	2.842380e-01	N/A
0.56         	2.856280e-01	N/A
0.561        	2.877790e-01	N/A
0.562        	2.893460e-01	N/A
0.563        	2.870120e-01	N/A
0.564        	2.863790e-01	N/A
0.565        	2.856790e-01	N/A
0.566        	2.869760e-01	N/A
0.567        	2.878920e-01	N/A
0.568        	2.859770e-01	N/A
0.569        	2.856490e-01	N/A
0.57         	2.858450e-01	N/A
0.571        	2.853570e-01	N/A
0.572        	2.862230e-01	N/A
0.573        	2.888970e-01	N/A
0.574        	2.874320e-01	N/A
0.575        	2.866880e-01	N/A
0.576        	2.860840e-01	N/A
0.577        	2.869550e-01	N/A
0.578        	2.875040e-01	N/A
0.579        	2.887300e-01	N/A
0.58         	2.881800e-01	N/A
0.581        	2.861690e-01	N/A
0.582        	2.861820e-01	N/A
0.583        	2.873650e-01	N/A
0.584        	2.877170e-01	N/A
0.585        	2.881700e-01	N/A
0.586        	2.894330e-01	N/A
0.587        	2.883970e-01	N/A
0.588        	2.871400e-01	N/A
0.589        	2.892550e-01	N/A
0.59         	2.899790e-01	N/A
0.591        	2.897390e-01	N/A
0.592        	2.886280e-01	N/A
0.593        	2.875720e-01	N/A
0.594        	2.870880e-01	N/A
0.595        	2.886520e-01	N/A
0.596        	2.899350e-01	N/A
0.597        	2.914810e-01	N/A
0.598        	2.898130e-01	N/A
0.599        	2.880600e-01	N/A
0.6          	2.896030e-01	N/A
0.601        	2.888460e-01	N/A
0.602        	2.896540e-01	N/A
0.603        	2.888230e-01	N/A
0.604        	2.882240e-01	N/A
0.605        	2.889480e-01	N/A
0.606        	2.895500e-01	N/A
0.607        	2.908010e-01	N/A
0.608        	2.904590e-01	N/A
0.609        	2.884640e-01	N/A
0.61         	2.887950e-01	N/A
0.611        	2.885700e-01	N/A
0.612        	2.909030e-01	N/A
0.613        	2.920880e-01	N/A
0.614        	2.925970e-01	N/A
0.615        	2.908940e-01	N/A
0.616        	2.887870e-01	N/A
0.617        	2.908650e-01	N/A
0.618        	2.914140e-01	N/A
0.619        	2.911220e-01	N/A
0.62         	2.903370e-01	N/A
0.621        	2.894450e-01	N/A
0.622        	2.906650e-01	N/A
0.623        	2.909710e-01	N/A
0.624        	2.914690e-01	N/A
0.625        	2.912880e-01	N/A
0.626        	2.906700e-01	N/A
0.627        	2.892010e-01	N/A
0.628        	2.922080e-01	N/A
0.629        	2.934260e-01	N/A
0.63         	2.937940e-01	N/A
0.631        	2.918680e-01	N/A
0.632        	2.905650e-01	N/A
0.633        	2.921710e-01	N/A
0.634        	2.928100e-01	N/A
0.635        	2.919370e-01	N/A
0.636        	2.916300e-01	N/A
0.637        	2.919220e-01	N/A
0.638        	2.916300e-01	N/A
0.639        	2.926910e-01	N/A
0.64         	2.932480e-01	N/A
0.641        	2.936670e-01	N/A
0.642        	2.916810e-01	N/A
0.643        	2.908390e-01	N/A
0.644        	2.924050e-01	N/A
0.645        	2.943250e-01	N/A
0.646        	2.948520e-01	N/A
0.647        	2.929730e-01	N/A
0.648        	2.919920e-01	N/A
0.649        	2.926040e-01	N/A
0.65         	2.938480e-01	N/A
0.651        	2.921420e-01	N/A
0.652        	2.929120e-01	N/A
0.653        	2.917100e-01	N/A
0.654        	2.924000e-01	N/A
0.655        	2.935610e-01	N/A
0.656        	2.936530e-01	N/A
0.657        	2.929850e-01	N/A
0.658        	2.920930e-01	N/A
0.659        	2.919720e-01	N/A
0.66         	2.922670e-01	N/A
0.661        	2.958200e-01	N/A
0.662        	2.957520e-01	N/A
0.663        	2.940140e-01	N/A
0.664        	2.928600e-01	N/A
0.665        	2.935690e-01	N/A
0.666        	2.942810e-01	N/A
0.667        	2.942110e-01	N/A
0.668        	2.932650e-01	N/A
0.669        	2.923590e-01	N/A
0.67         	2.935150e-01	N/A
0.671        	2.957480e-01	N/A
0.672        	2.951330e-01	N/A
0.673        	2.943330e-01	N/A
0.674        	2.920970e-01	N/A
0.675        	2.943790e-01	N/A
0.676        	2.965390e-01	N/A
0.677        	2.959160e-01	N/A
0.678        	2.946430e-01	N/A
0.679        	2.941630e-01	N/A
0.68         	2.946640e-01	N/A
0.681        	2.951280e-01	N/A
0.682        	2.947120e-01	N/A
0.683        	2.944800e-01	N/A
0.684        	2.936650e-01	N/A
0.685        	2.947940e-01	N/A
0.686        	2.959210e-01	N/A
0.687        	2.953880e-01	N/A
0.688        	2.940840e-01	N/A
0.689        	2.941430e-01	N/A
0.69         	2.948150e-01	N/A
0.691        	2.959200e-01	N/A
0.692        	2.976950e-01	N/A
0.693        	2.957130e-01	N/A
0.694        	2.953100e-01	N/A
0.695        	2.954250e-01	N/A
0.696        	2.961010e-01	N/A
0.697        	2.954430e-01	N/A
0.698        	2.951790e-01	N/A
0.699        	2.951390e-01	N/A
0.7          	2.954490e-01	N/A
0.701        	2.964520e-01	N/A
0.702        	2.953600e-01	N/A
0.703        	2.947310e-01	N/A
0.704        	2.943420e-01	N/A
0.705        	2.968190e-01	N/A
0.706        	2.963490e-01	N/A
0.707        	2.974380e-01	N/A
0.708        	2.971420e-01	N/A
0.709        	2.960640e-01	N/A
0.71         	2.964030e-01	N/A
0.711        	2.964030e-01	N/A
0.712        	2.962540e-01	N/A
0.713        	2.960140e-01	N/A
0.714        	2.948230e-01	N/A
0.715        	2.968510e-01	N/A
0.716        	2.968240e-01	N/A
0.717        	2.970980e-01	N/A
0.718        	2.948260e-01	N/A
0.719        	2.955110e-01	N/A
0.72         	2.970830e-01	N/A
0.721        	2.983080e-01	N/A
0.722        	2.990600e-01	N/A
0.723        	2.974000e-01	N/A
0.724        	2.963980e-01	N/A
0.725        	2.963440e-01	N/A
0.726        	2.970090e-01	N/A
0.727        	2.989130e-01	N/A
0.728        	2.965470e-01	N/A
0.729        	2.959110e-01	N/A
0.73         	2.970430e-01	N/A
0.731        	2.973320e-01	N/A
0.732        	2.984540e-01	N/A
0.733        	2.969910e-01	N/A
0.734        	2.962560e-01	N/A
0.735        	2.982780e-01	N/A
0.736        	3.002400e-01	N/A
0.737        	2.985990e-01	N/A
0.738        	2.971150e-01	N/A
0.739        	2.982900e-01	N/A
0.74         	2.978530e-01	N/A
0.741        	2.979900e-01	N/A
0.742        	2.978230e-01	N/A
0.743        	2.961640e-01	N/A
0.744        	2.975840e-01	N/A
0.745        	2.993550e-01	N/A
0.746        	2.993120e-01	N/A
0.747        	2.980700e-01	N/A
0.748        	2.964950e-01	N/A
0.749        	2.973780e-01	N/A
0.75         	3.002530e-01	N/A
0.751        	3.014190e-01	N/A
0.752        	2.996190e-01	N/A
0.753        	2.978000e-01	N/A
0.754        	2.975560e-01	N/A
0.755        	2.987700e-01	N/A
0.756        	2.989950e-01	N/A
0.757        	2.989150e-01	N/A
0.758        	2.988940e-01	N/A
0.759        	2.988850e-01	N/A
0.76         	2.986970e-01	N/A
0.761        	2.977080e-01	N/A
0.762        	2.979650e-01	N/A
0.763        	2.992820e-01	N/A
0.764        	3.015330e-01	N/A
0.765        	3.015980e-01	N/A
0.766        	2.996730e-01	N/A
0.767        	2.981250e-01	N/A
0.768        	2.982470e-01	N/A
0.769        	2.994860e-01	N/A
0.77         	2.995440e-01	N/A
0.771        	2.993580e-01	N/A
0.772        	3.002850e-01	N/A
0.773        	3.002800e-01	N/A
0.774        	3.001100e-01	N/A
0.775        	2.996280e-01	N/A
0.776        	2.979790e-01	N/A
0.777        	2.979490e-01	N/A
0.778        	3.002170e-01	N/A
0.779        	3.016280e-01	N/A
0.78         	3.001550e-01	N/A
0.781        	2.998630e-01	N/A
0.782        	2.999600e-01	N/A
0.783        	3.000220e-01	N/A
0.784        	2.998630e-01	N/A
0.785        	2.980530e-01	N/A
0.786        	2.991410e-01	N/A
0.787        	2.997000e-01	N/A
0.788        	3.012000e-01	N/A
0.789        	2.993770e-01	N/A
0.79         	2.986580e-01	N/A
0.791        	2.995790e-01	N/A
0.792        	3.008880e-01	N/A
0.793        	3.017780e-01	N/A
0.794        	3.000690e-01	N/A
0.795        	3.015210e-01	N/A
0.796        	3.015510e-01	N/A
0.797        	3.021700e-01	N/A
0.798        	3.005360e-01	N/A
0.799        	3.005800e-01	N/A
0.8          	3.004910e-01	N/A
0.801        	3.009100e-01	N/A
0.802        	3.001990e-01	N/A
0.803        	2.993520e-01	N/A
0.804        	3.007910e-01	N/A
0.805        	3.023430e-01	N/A
0.806        	3.041160e-01	N/A
0.807        	3.016930e-01	N/A
0.808        	2.999210e-01	N/A
0.809        	2.996940e-01	N/A
0.81         	3.003490e-01	N/A
0.811        	3.002480e-01	N/A
0.812        	2.995770e-01	N/A
0.813        	3.014960e-01	N/A
0.814        	3.014810e-01	N/A
0.815        	3.023570e-01	N/A
0.816        	3.011430e-01	N/A
0.817        	3.007880e-01	N/A
0.818        	3.019400e-01	N/A
0.819        	3.028640e-01	N/A
0.82         	3.014850e-01	N/A
0.821        	3.003090e-01	N/A
0.822        	3.009880e-01	N/A
0.823        	3.025240e-01	N/A
0.824        	3.021360e-01	N/A
0.825        	3.008830e-01	N/A
0.826        	3.020090e-01	N/A
0.827        	3.017880e-01	N/A
0.828        	3.018720e-01	N/A
0.829        	3.021760e-01	N/A
0.83         	3.013710e-01	N/A
0.831        	3.022890e-01	N/A
0.832        	3.033180e-01	N/A
0.833        	3.045180e-01	N/A
0.834        	3.032270e-01	N/A
0.835        	3.027630e-01	N/A
0.836        	3.032860e-01	N/A
0.837        	3.039780e-01	N/A
0.838        	3.020690e-01	N/A
0.839        	3.016720e-01	N/A
0.84         	3.029290e-01	N/A
0.841        	3.024050e-01	N/A
0.842        	3.021940e-01	N/A
0.843        	3.015820e-01	N/A
0.844        	3.017990e-01	N/A
0.845        	3.037010e-01	N/A
0.846        	3.052360e-01	N/A
0.847        	3.028010e-01	N/A
0.848        	3.039660e-01	N/A
0.849        	3.037780e-01	N/A
0.85         	3.044070e-01	N/A
0.851        	3.029270e-01	N/A
0.852        	3.019150e-01	N/A
0.853        	3.038830e-01	N/A
0.854        	3.028850e-01	N/A
0.855        	3.026870e-01	N/A
0.856        	3.012400e-01	N/A
0.857        	3.033530e-01	N/A
0.858        	3.044170e-01	N/A
0.859        	3.055410e-01	N/A
0.86         	3.047600e-01	N/A
0.861        	3.047720e-01	N/A
0.862        	3.046560e-01	N/A
0.863        	3.042160e-01	N/A
0.864        	3.038350e-01	N/A
0.865        	3.027170e-01	N/A
0.866        	3.039320e-01	N/A
0.867        	3.039480e-01	N/A
0.868        	3.042000e-01	N/A
0.869        	3.033530e-01	N/A
0.87         	3.048300e-01	N/A
0.871        	3.047560e-01	N/A
0.872        	3.059240e-01	N/A
0.873        	3.024370e-01	N/A
0.874        	3.041000e-01	N/A
0.875        	3.044850e-01	N/A
0.876        	3.054490e-01	N/A
0.877        	3.042440e-01	N/A
0.878        	3.047990e-01	N/A
0.879        	3.050340e-01	N/A
0.88         	3.055440e-01	N/A
0.881        	3.045690e-01	N/A
0.882        	3.046300e-01	N/A
0.883        	3.059730e-01	N/A
0.884        	3.065250e-01	N/A
0.885        	3.046460e-01	N/A
0.886        	3.045620e-01	N/A
0.887        	3.049020e-01	N/A
0.888        	3.049550e-01	N/A
0.889        	3.048180e-01	N/A
0.89         	3.035200e-01	N/A
0.891        	3.052010e-01	N/A
0.892        	3.048350e-01	N/A
0.893        	3.052010e-01	N/A
0.894        	3.045590e-01	N/A
0.895        	3.061050e-01	N/A
0.896        	3.071510e-01	N/A
0.897        	3.082790e-01	N/A
0.898        	3.051960e-01	N/A
0.899        	3.062280e-01	N/A
0.9          	3.063430e-01	N/A
0.901        	3.055410e-01	N/A
0.902        	3.044030e-01	N/A
0.903        	3.056110e-01	N/A
0.904        	3.069560e-01	N/A
0.905        	3.065950e-01	N/A
0.906        	3.048170e-01	N/A
0.907        	3.048920e-01	N/A
0.908        	3.063180e-01	N/A
0.909        	3.082000e-01	N/A
0.91         	3.067570e-01	N/A
0.911        	3.057230e-01	N/A
0.912        	3.061090e-01	N/A
0.913        	3.061950e-01	N/A
0.914        	3.058110e-01	N/A
0.915        	3.040530e-01	N/A
0.916        	3.055710e-01	N/A
0.917        	3.066960e-01	N/A
0.918        	3.077210e-01	N/A
0.919        	3.054480e-01	N/A
0.92         	3.065040e-01	N/A
0.921        	3.076040e-01	N/A
0.922        	3.086840e-01	N/A
0.923        	3.063560e-01	N/A
0.924        	3.065710e-01	N/A
0.925        	3.075280e-01	N/A
0.926        	3.073650e-01	N/A
0.927        	3.058260e-01	N/A
0.928        	3.068980e-01	N/A
0.929        	3.082570e-01	N/A
0.93         	3.086950e-01	N/A
0.931        	3.057730e-01	N/A
0.932        	3.065390e-01	N/A
0.933        	3.087710e-01	N/A
0.934        	3.095160e-01	N/A
0.935        	3.070040e-01	N/A
0.936        	3.076540e-01	N/A
0.937        	3.083940e-01	N/A
0.938        	3.070750e-01	N/A
0.939        	3.055670e-01	N/A
0.94         	3.068880e-01	N/A
0.941        	3.076090e-01	N/A
0.942        	3.079050e-01	N/A
0.943        	3.071780e-01	N/A
0.944        	3.084040e-01	N/A
0.945        	3.086820e-01	N/A
0.946        	3.099580e-01	N/A
0.947        	3.087350e-01	N/A
0.948        	3.079460e-01	N/A
0.949        	3.078290e-01	N/A
0.95         	3.084730e-01	N/A
0.951        	3.066840e-01	N/A
0.952        	3.064480e-01	N/A
0.953        	3.080590e-01	N/A
0.954        	3.087890e-01	N/A
0.955        	3.067650e-01	N/A
0.956        	3.075780e-01	N/A
0.957        	3.091460e-01	N/A
0.958        	3.092420e-01	N/A
0.959        	3.082410e-01	N/A
0.96         	3.076940e-01	N/A
0.961        	3.073480e-01	N/A
0.962        	3.080880e-01	N/A
0.963        	3.069830e-01	N/A
0.964        	3.063230e-01	N/A
0.965        	3.080850e-01	N/A