# Forces     
# CofR       : (0.000000e+00 0.000000e+00 0.000000e+00)
# Time       forces(pressure viscous porous)	moments(pressure viscous porous)
0.001        	((6.652952e+00 5.381408e+00 8.133840e-16) (2.249980e-03 -5.908063e-04 -5.141224e-17) (0.000000e+00 0.000000e+00 0.000000e+00)) ((2.174809e-16 -1.066656e-16 1.198322e+00) (-5.882869e-18 -5.462341e-18 -2.820976e-04) (0.000000e+00 0.000000e+00 0.000000e+00))
0.002        	((6.495562e-01 7.843351e-01 -2.010876e-15) (1.793497e-03 -6.139328e-04 -7.443559e-17) (0.000000e+00 0.000000e+00 0.000000e+00)) ((6.431638e-17 -1.751653e-16 1.509499e-01) (7.820649e-18 1.181158e-17 -2.750399e-04) (0.000000e+00 0.000000e+00 0.000000e+00))
0.003        	((6.216155e-01 7.833878e-01 -1.024749e-15) (1.420210e-03 -6.029703e-04 -6.065178e-17) (0.000000e+00 0.000000e+00 0.000000e+00)) ((4.040843e-17 2.124398e-16 1.487650e-01) (-1.229119e-18 -1.014995e-19 -2.596561e-04) (0.000000e+00 0.000000e+00 0.000000e+00))
0.004        	((5.982448e-01 7.636982e-01 -3.325955e-15) (1.130171e-03 -5.973188e-04 6.128731e-16) (0.000000e+00 0.000000e+00 0.000000e+00)) ((7.715763e-17 2.544865e-16 1.445042e-01) (1.715265e-17 -1.076309e-16 -2.458482e-04) (0.000000e+00 0.000000e+00 0.000000e+00))
0.005        	((5.901409e-01 7.476339e-01 1.360312e-15) (9.003904e-04 -5.997995e-04 -7.996437e-17) (0.000000e+00 0.000000e+00 0.000000e+00)) ((6.184221e-17 -3.164733e-16 1.418750e-01) (-7.889316e-18 2.164162e-17 -2.352390e-04) (0.000000e+00 0.000000e+00 0.000000e+00))
0.006        	((5.917405e-01 7.475379e-01 -4.171554e-16) (7.144913e-04 -5.967829e-04 -1.539383e-16) (0.000000e+00 0.000000e+00 0.000000e+00)) ((1.572409e-16 -2.778998e-16 1.420600e-01) (-8.441079e-18 2.661232e-18 -2.246000e-04) (0.000000e+00 0.000000e+00 0.000000e+00))
0.007        	((6.002378e-01 7.562587e-01 -3.678059e-16) (5.606954e-04 -5.921117e-04 1.469943e-16) (0.000000e+00 0.000000e+00 0.000000e+00)) ((1.060123e-16 -1.271297e-16 1.439213e-01) (1.128523e-17 9.920793e-18 -2.147673e-04) (0.000000e+00 0.000000e+00 0.000000e+00))
0.008        	((6.126768e-01 7.632784e-01 -1.817185e-15) (4.337646e-04 -5.864765e-04 4.352106e-16) (0.000000e+00 0.000000e+00 0.000000e+00)) ((7.333948e-17 -5.672043e-17 1.458837e-01) (9.162646e-18 -9.584795e-17 -2.057942e-04) (0.000000e+00 0.000000e+00 0.000000e+00))
0.009        	((6.284571e-01 7.707866e-01 3.482193e-16) (3.277569e-04 -5.801067e-04 -3.310157e-16) (0.000000e+00 0.000000e+00 0.000000e+00)) ((1.414012e-16 -2.295105e-16 1.481903e-01) (-5.299572e-18 8.185308e-17 -1.976307e-04) (0.000000e+00 0.000000e+00 0.000000e+00))
0.01         	((6.474510e-01 7.789954e-01 -1.127171e-15) (2.387189e-04 -5.738801e-04 3.934009e-16) (0.000000e+00 0.000000e+00 0.000000e+00)) ((4.987103e-17 -1.077444e-16 1.508655e-01) (1.064872e-17 -9.698386e-17 -1.903729e-04) (0.000000e+00 0.000000e+00 0.000000e+00))
0.011        	((6.711851e-01 7.932176e-01 -1.385040e-15) (1.643842e-04 -5.657538e-04 -1.453415e-16) (0.000000e+00 0.000000e+00 0.000000e+00)) ((2.082029e-17 1.228660e-17 1.547135e-01) (5.725969e-18 7.091258e-17 -1.832305e-04) (0.000000e+00 0.000000e+00 0.000000e+00))
0.012        	((6.939203e-01 8.101975e-01 -2.855649e-15) (1.012080e-04 -5.536238e-04 1.507106e-16) (0.000000e+00 0.000000e+00 0.000000e+00)) ((7.194026e-17 3.041787e-16 1.588617e-01) (7.717427e-18 -4.733901e-17 -1.755222e-04) (0.000000e+00 0.000000e+00 0.000000e+00))
0.013        	((7.212487e-01 8.222606e-01 -5.299792e-16) (4.924361e-05 -5.397573e-04 2.738878e-17) (0.000000e+00 0.000000e+00 0.000000e+00)) ((3.948852e-17 -1.617486e-16 1.627992e-01) (7.579188e-18 3.609068e-17 -1.677595e-04) (0.000000e+00 0.000000e+00 0.000000e+00))
0.014        	((7.515282e-01 8.320781e-01 -4.332810e-15) (8.193074e-06 -5.239937e-04 5.890994e-16) (0.000000e+00 0.000000e+00 0.000000e+00)) ((1.609790e-16 6.617563e-16 1.667485e-01) (2.047359e-19 -1.327665e-16 -1.598646e-04) (0.000000e+00 0.000000e+00 0.000000e+00))
0.015        	((7.813480e-01 8.453475e-01 4.367751e-15) (-2.460047e-05 -5.044023e-04 -5.834691e-16) (0.000000e+00 0.000000e+00 0.000000e+00)) ((1.324601e-16 -8.730367e-16 1.711438e-01) (4.086758e-18 1.305019e-16 -1.512534e-04) (0.000000e+00 0.000000e+00 0.000000e+00))
0.016        	((8.100999e-01 8.733962e-01 -7.900345e-15) (-5.329508e-05 -4.757002e-04 1.155909e-15) (0.000000e+00 0.000000e+00 0.000000e+00)) ((1.195331e-16 1.516896e-15 1.773160e-01) (-1.228631e-17 -3.137353e-16 -1.403208e-04) (0.000000e+00 0.000000e+00 0.000000e+00))
0.017        	((8.390903e-01 8.767727e-01 7.472988e-15) (-7.443173e-05 -4.454053e-04 -1.687732e-15) (0.000000e+00 0.000000e+00 0.000000e+00)) ((7.884370e-17 -1.742710e-15 1.805204e-01) (-4.193268e-18 3.641750e-16 -1.291742e-04) (0.000000e+00 0.000000e+00 0.000000e+00))
0.018        	((8.791576e-01 8.676430e-01 -7.614350e-15) (-8.240948e-05 -4.179664e-04 1.204944e-15) (0.000000e+00 0.000000e+00 0.000000e+00)) ((1.344315e-16 1.630192e-15 1.832631e-01) (-7.786354e-18 -3.376175e-16 -1.189636e-04) (0.000000e+00 0.000000e+00 0.000000e+00))
0.019        	((9.071391e-01 9.021907e-01 5.553172e-15) (-9.238663e-05 -3.760324e-04 -1.128059e-15) (0.000000e+00 0.000000e+00 0.000000e+00)) ((1.142735e-16 -1.321501e-15 1.902792e-01) (1.001166e-17 3.029730e-16 -1.049795e-04) (0.000000e+00 0.000000e+00 0.000000e+00))
0.02         	((9.404298e-01 9.102683e-01 -7.770081e-15) (-9.836001e-05 -3.323755e-04 1.177226e-15) (0.000000e+00 0.000000e+00 0.000000e+00)) ((6.340295e-17 1.201162e-15 1.946359e-01) (-1.561326e-17 -2.985169e-16 -9.077352e-05) (0.000000e+00 0.000000e+00 0.000000e+00))
0.021        	((9.900707e-01 9.066990e-01 8.895848e-15) (-9.317841e-05 -2.949929e-04 -1.087453e-15) (0.000000e+00 0.000000e+00 0.000000e+00)) ((-8.274099e-17 -2.243287e-15 1.992234e-01) (1.073637e-17 2.903693e-16 -7.842498e-05) (0.000000e+00 0.000000e+00 0.000000e+00))
0.022        	((1.022817e+00 8.915005e-01 -3.217524e-15) (-8.224441e-05 -2.639233e-04 5.660598e-16) (0.000000e+00 0.000000e+00 0.000000e+00)) ((3.478064e-17 3.229400e-16 2.010122e-01) (-1.609448e-17 -1.654055e-16 -6.771459e-05) (0.000000e+00 0.000000e+00 0.000000e+00))
0.023        	((1.066161e+00 9.242135e-01 6.366912e-15) (-7.246852e-05 -2.228671e-04 -1.097568e-15) (0.000000e+00 0.000000e+00 0.000000e+00)) ((-1.653757e-16 -1.842779e-15 2.094472e-01) (2.298470e-17 2.748090e-16 -5.448323e-05) (0.000000e+00 0.000000e+00 0.000000e+00))
0.024        	((1.106584e+00 9.109463e-01 -2.423186e-15) (-5.656434e-05 -1.883445e-04 5.131075e-16) (0.000000e+00 0.000000e+00 0.000000e+00)) ((-1.120841e-17 1.226835e-16 2.124285e-01) (-1.082973e-17 -1.589510e-16 -4.308315e-05) (0.000000e+00 0.000000e+00 0.000000e+00))
0.025        	((1.151599e+00 9.089045e-01 4.879824e-15) (-3.780692e-05 -1.573045e-04 -1.130714e-15) (0.000000e+00 0.000000e+00 0.000000e+00)) ((-1.237444e-16 -1.256076e-15 2.172786e-01) (2.559254e-17 2.537562e-16 -3.267148e-05) (0.000000e+00 0.000000e+00 0.000000e+00))
0.026        	((1.186201e+00 9.156128e-01 -2.970822e-15) (-2.057299e-05 -1.203153e-04 5.938725e-16) (0.000000e+00 0.000000e+00 0.000000e+00)) ((3.443341e-17 4.681685e-16 2.221603e-01) (-1.647453e-17 -1.586476e-16 -2.083193e-05) (0.000000e+00 0.000000e+00 0.000000e+00))
0.027        	((1.247314e+00 8.927640e-01 5.826322e-15) (8.566267e-06 -9.588811e-05 -7.815947e-16) (0.000000e+00 0.000000e+00 0.000000e+00)) ((-3.159464e-16 -1.782206e-15 2.266908e-01) (4.103151e-17 2.226360e-16 -1.190685e-05) (0.000000e+00 0.000000e+00 0.000000e+00))
0.028        	((1.277053e+00 9.129298e-01 -4.785869e-15) (2.808903e-05 -5.998633e-05 3.226548e-16) (0.000000e+00 0.000000e+00 0.000000e+00)) ((2.643070e-16 7.219096e-16 2.327115e-01) (-4.187814e-18 -6.537687e-17 -3.942017e-07) (0.000000e+00 0.000000e+00 0.000000e+00))
0.029        	((1.338614e+00 8.858100e-01 2.270139e-15) (6.010819e-05 -3.555115e-05 5.857760e-16) (0.000000e+00 0.000000e+00 0.000000e+00)) ((-1.242170e-16 -6.863514e-16 2.372602e-01) (-2.251597e-17 -1.310473e-16 8.657498e-06) (0.000000e+00 0.000000e+00 0.000000e+00))
0.03         	((1.382535e+00 8.671682e-01 -5.103635e-15) (9.247188e-05 -1.609393e-05 3.167185e-16) (0.000000e+00 0.000000e+00 0.000000e+00)) ((2.915765e-16 7.778308e-16 2.410240e-01) (-7.642642e-18 -4.690858e-17 1.647250e-05) (0.000000e+00 0.000000e+00 0.000000e+00))
0.031        	((1.430808e+00 8.583519e-01 3.516893e-15) (1.263271e-04 4.571323e-06 -3.055333e-16) (0.000000e+00 0.000000e+00 0.000000e+00)) ((-4.855359e-17 -8.290564e-16 2.464475e-01) (-4.753670e-18 3.413688e-17 2.481882e-05) (0.000000e+00 0.000000e+00 0.000000e+00))
0.032        	((1.478671e+00 8.420466e-01 -2.729739e-15) (1.615346e-04 2.301532e-05 -6.409319e-18) (0.000000e+00 0.000000e+00 0.000000e+00)) ((1.541073e-16 2.666491e-16 2.512639e-01) (1.244792e-17 1.847391e-17 3.290725e-05) (0.000000e+00 0.000000e+00 0.000000e+00))
0.033        	((1.533167e+00 8.092974e-01 1.790889e-15) (2.036153e-04 3.400943e-05 9.059447e-17) (0.000000e+00 0.000000e+00 0.000000e+00)) ((-5.926441e-17 -5.290184e-16 2.555006e-01) (-3.448950e-18 1.346607e-17 3.977193e-05) (0.000000e+00 0.000000e+00 0.000000e+00))
0.034        	((1.571942e+00 7.971281e-01 -3.280806e-15) (2.419309e-04 5.034113e-05 3.451801e-16) (0.000000e+00 0.000000e+00 0.000000e+00)) ((2.651371e-16 3.283047e-16 2.600596e-01) (-1.088354e-17 -5.088419e-17 4.809590e-05) (0.000000e+00 0.000000e+00 0.000000e+00))
0.035        	((1.629640e+00 7.657585e-01 2.461389e-15) (2.863754e-04 6.033777e-05 -1.611141e-16) (0.000000e+00 0.000000e+00 0.000000e+00)) ((-3.115454e-16 -6.555376e-16 2.653280e-01) (9.224108e-18 2.031755e-17 5.559045e-05) (0.000000e+00 0.000000e+00 0.000000e+00))
0.036        	((1.663790e+00 7.313833e-01 -3.195242e-15) (3.299107e-04 6.998820e-05 4.364303e-16) (0.000000e+00 0.000000e+00 0.000000e+00)) ((1.719093e-16 1.792111e-16 2.677511e-01) (-6.174627e-18 -5.992324e-17 6.325507e-05) (0.000000e+00 0.000000e+00 0.000000e+00))
0.037        	((1.715184e+00 7.047457e-01 1.061561e-15) (3.748369e-04 7.929136e-05 -1.334318e-16) (0.000000e+00 0.000000e+00 0.000000e+00)) ((4.927338e-17 -2.463905e-16 2.731963e-01) (-5.727039e-18 -1.286805e-18 7.132841e-05) (0.000000e+00 0.000000e+00 0.000000e+00))
0.038        	((1.761418e+00 6.613719e-01 -1.095872e-15) (4.226432e-04 8.288685e-05 9.253381e-17) (0.000000e+00 0.000000e+00 0.000000e+00)) ((-1.964413e-17 -1.264351e-16 2.768989e-01) (-3.486075e-18 -2.355725e-17 7.860209e-05) (0.000000e+00 0.000000e+00 0.000000e+00))
0.039        	((1.791031e+00 6.281072e-01 7.070251e-16) (4.665720e-04 9.058715e-05 -2.163305e-16) (0.000000e+00 0.000000e+00 0.000000e+00)) ((4.853159e-18 -1.293384e-16 2.795530e-01) (-8.258416e-18 7.134703e-18 8.708780e-05) (0.000000e+00 0.000000e+00 0.000000e+00))
0.04         	((1.842283e+00 5.821890e-01 2.099253e-16) (5.161849e-04 9.238188e-05 2.309460e-16) (0.000000e+00 0.000000e+00 0.000000e+00)) ((-1.160532e-16 -3.589712e-16 2.843128e-01) (-1.116360e-17 -4.431623e-17 9.501539e-05) (0.000000e+00 0.000000e+00 0.000000e+00))
0.041        	((1.884461e+00 5.392266e-01 5.496752e-16) (5.671198e-04 9.396538e-05 5.677388e-18) (0.000000e+00 0.000000e+00 0.000000e+00)) ((1.065344e-16 -1.758081e-16 2.884278e-01) (-2.927776e-17 -2.887672e-17 1.036409e-04) (0.000000e+00 0.000000e+00 0.000000e+00))
0.042        	((1.907705e+00 4.911581e-01 2.668175e-15) (6.164049e-04 9.650668e-05 -3.246710e-16) (0.000000e+00 0.000000e+00 0.000000e+00)) ((-4.256717e-16 -7.953212e-16 2.899502e-01) (3.944066e-17 4.744477e-17 1.128293e-04) (0.000000e+00 0.000000e+00 0.000000e+00))
0.043        	((1.948418e+00 4.345032e-01 -6.304099e-16) (6.690432e-04 9.264914e-05 -1.059359e-17) (0.000000e+00 0.000000e+00 0.000000e+00)) ((9.632619e-17 1.215663e-17 2.935945e-01) (2.960444e-19 -1.127952e-17 1.214841e-04) (0.000000e+00 0.000000e+00 0.000000e+00))
0.044        	((1.961389e+00 3.918504e-01 1.915397e-15) (7.167798e-04 9.574345e-05 -2.815103e-16) (0.000000e+00 0.000000e+00 0.000000e+00)) ((-2.494523e-16 -6.271042e-16 2.945885e-01) (4.440520e-17 5.458533e-17 1.317740e-04) (0.000000e+00 0.000000e+00 0.000000e+00))
0.045        	((2.009958e+00 3.285592e-01 -5.278372e-16) (7.718897e-04 8.946245e-05 -4.378691e-17) (0.000000e+00 0.000000e+00 0.000000e+00)) ((1.977522e-16 4.085197e-17 2.996491e-01) (-6.127265e-18 -1.141292e-17 1.413564e-04) (0.000000e+00 0.000000e+00 0.000000e+00))
0.046        	((2.029846e+00 2.823413e-01 5.543211e-15) (8.243807e-04 8.900619e-05 -7.982000e-16) (0.000000e+00 0.000000e+00 0.000000e+00)) ((-9.310737e-16 -1.209624e-15 3.019395e-01) (1.159843e-16 1.474102e-16 1.524456e-04) (0.000000e+00 0.000000e+00 0.000000e+00))
0.047        	((2.027142e+00 2.086025e-01 -1.522700e-15) (8.741072e-04 8.183346e-05 1.732393e-16) (0.000000e+00 0.000000e+00 0.000000e+00)) ((3.462502e-16 1.499452e-16 2.999880e-01) (-3.352016e-17 -3.418634e-17 1.622577e-04) (0.000000e+00 0.000000e+00 0.000000e+00))
0.048        	((2.040290e+00 1.467674e-01 6.686583e-15) (9.248683e-04 7.420303e-05 -9.666631e-16) (0.000000e+00 0.000000e+00 0.000000e+00)) ((-1.289630e-15 -1.389683e-15 3.012035e-01) (1.745416e-16 1.751626e-16 1.726667e-04) (0.000000e+00 0.000000e+00 0.000000e+00))
0.049        	((2.083823e+00 1.094025e-01 5.528641e-16) (9.797165e-04 7.607336e-05 -2.917346e-17) (0.000000e+00 0.000000e+00 0.000000e+00)) ((1.006022e-16 -1.578880e-16 3.080440e-01) (-3.711801e-17 7.458965e-19 1.861369e-04) (0.000000e+00 0.000000e+00 0.000000e+00))
0.05         	((2.063982e+00 2.874740e-02 9.811183e-15) (1.031395e-03 6.972152e-05 -1.345850e-15) (0.000000e+00 0.000000e+00 0.000000e+00)) ((-1.865613e-15 -1.753316e-15 3.044333e-01) (2.688457e-16 2.203432e-16 1.979745e-04) (0.000000e+00 0.000000e+00 0.000000e+00))
0.051        	((2.060768e+00 -3.508393e-02 -9.080162e-16) (1.083227e-03 6.339509e-05 6.253068e-17) (0.000000e+00 0.000000e+00 0.000000e+00)) ((3.693893e-16 5.317574e-17 3.041551e-01) (-2.987723e-17 -1.266505e-17 2.103318e-04) (0.000000e+00 0.000000e+00 0.000000e+00))
0.052        	((2.057297e+00 -1.024785e-01 9.450838e-15) (1.136318e-03 5.517193e-05 -1.072798e-15) (0.000000e+00 0.000000e+00 0.000000e+00)) ((-2.059712e-15 -1.613643e-15 3.040900e-01) (2.482359e-16 1.776967e-16 2.230929e-04) (0.000000e+00 0.000000e+00 0.000000e+00))
0.053        	((2.053420e+00 -1.549515e-01 -2.062952e-18) (1.188679e-03 5.315826e-05 -1.532190e-16) (0.000000e+00 0.000000e+00 0.000000e+00)) ((7.032959e-17 -1.624382e-16 3.045450e-01) (4.859011e-18 2.316033e-17 2.374143e-04) (0.000000e+00 0.000000e+00 0.000000e+00))
0.054        	((2.034926e+00 -2.196157e-01 1.215757e-14) (1.241074e-03 5.033889e-05 -1.469236e-15) (0.000000e+00 0.000000e+00 0.000000e+00)) ((-2.511988e-15 -1.795665e-15 3.029019e-01) (3.061361e-16 2.103507e-16 2.520228e-04) (0.000000e+00 0.000000e+00 0.000000e+00))
0.055        	((2.012182e+00 -2.934185e-01 1.151535e-15) (1.294273e-03 4.138768e-05 -4.991724e-16) (0.000000e+00 0.000000e+00 0.000000e+00)) ((1.676301e-16 -2.065213e-16 3.009126e-01) (3.118795e-18 4.952903e-17 2.660894e-04) (0.000000e+00 0.000000e+00 0.000000e+00))
0.056        	((1.970780e+00 -3.556841e-01 1.349406e-14) (1.345145e-03 3.286004e-05 -1.619901e-15) (0.000000e+00 0.000000e+00 0.000000e+00)) ((-3.026174e-15 -1.802445e-15 2.965398e-01) (3.791717e-16 2.105254e-16 2.802865e-04) (0.000000e+00 0.000000e+00 0.000000e+00))
0.057        	((1.976913e+00 -4.039284e-01 -1.827592e-15) (1.400238e-03 3.060763e-05 1.572753e-16) (0.000000e+00 0.000000e+00 0.000000e+00)) ((2.393844e-16 -1.722869e-18 2.995017e-01) (-1.698994e-17 -1.015978e-17 2.969308e-04) (0.000000e+00 0.000000e+00 0.000000e+00))
0.058        	((1.910315e+00 -4.640726e-01 1.529970e-14) (1.452096e-03 2.636689e-05 -1.721731e-15) (0.000000e+00 0.000000e+00 0.000000e+00)) ((-3.656879e-15 -1.766239e-15 2.919000e-01) (4.516522e-16 2.044900e-16 3.131580e-04) (0.000000e+00 0.000000e+00 0.000000e+00))
0.059        	((1.867617e+00 -5.254058e-01 -5.838013e-16) (1.505642e-03 1.756210e-05 9.569276e-17) (0.000000e+00 0.000000e+00 0.000000e+00)) ((7.102341e-17 -1.252927e-16 2.882309e-01) (-1.406554e-17 -1.245877e-18 3.295541e-04) (0.000000e+00 0.000000e+00 0.000000e+00))
0.06         	((1.836466e+00 -5.718538e-01 1.812725e-14) (1.563790e-03 1.454264e-05 -1.925805e-15) (0.000000e+00 0.000000e+00 0.000000e+00)) ((-4.276374e-15 -1.673637e-15 2.862570e-01) (5.358216e-16 1.887450e-16 3.482857e-04) (0.000000e+00 0.000000e+00 0.000000e+00))
0.061        	((1.770519e+00 -6.245908e-01 -1.164566e-15) (1.622746e-03 8.401591e-06 8.672055e-17) (0.000000e+00 0.000000e+00 0.000000e+00)) ((2.309265e-16 -7.261440e-17 2.795519e-01) (-1.958976e-17 -3.600298e-18 3.672396e-04) (0.000000e+00 0.000000e+00 0.000000e+00))
0.062        	((1.715351e+00 -6.714524e-01 1.817033e-14) (1.684297e-03 1.255056e-06 3.007794e-15) (0.000000e+00 0.000000e+00 0.000000e+00)) ((-4.282634e-15 -1.384945e-15 2.745511e-01) (-7.338533e-16 -1.581615e-16 3.872456e-04) (0.000000e+00 0.000000e+00 0.000000e+00))
0.063        	((1.663383e+00 -7.085859e-01 5.405875e-16) (1.752086e-03 -3.185031e-06 -5.335098e-15) (0.000000e+00 0.000000e+00 0.000000e+00)) ((-1.197837e-16 -1.300648e-16 2.698727e-01) (1.340247e-15 2.721561e-16 4.095918e-04) (0.000000e+00 0.000000e+00 0.000000e+00))
0.064        	((1.578729e+00 -7.454852e-01 1.736137e-15) (1.821020e-03 -1.224999e-05 5.648196e-15) (0.000000e+00 0.000000e+00 0.000000e+00)) ((-1.952938e-16 -1.721476e-16 2.607331e-01) (-1.379883e-15 -2.259141e-16 4.322586e-04) (0.000000e+00 0.000000e+00 0.000000e+00))
0.065        	((1.524078e+00 -7.791408e-01 -8.476986e-16) (1.896271e-03 -2.191722e-05 -5.760182e-15) (0.000000e+00 0.000000e+00 0.000000e+00)) ((2.165410e-17 -2.465522e-17 2.559385e-01) (1.439266e-15 1.666636e-16 4.569014e-04) (0.000000e+00 0.000000e+00 0.000000e+00))
0.066        	((1.439858e+00 -7.998201e-01 1.236375e-15) (1.974716e-03 -3.176162e-05 5.891532e-15) (0.000000e+00 0.000000e+00 0.000000e+00)) ((-4.456787e-17 -9.605662e-17 2.465046e-01) (-1.487311e-15 -1.091782e-16 4.825735e-04) (0.000000e+00 0.000000e+00 0.000000e+00))
0.067        	((1.352386e+00 -8.213275e-01 -2.372290e-16) (2.056304e-03 -4.724029e-05 -5.908688e-15) (0.000000e+00 0.000000e+00 0.000000e+00)) ((-1.210351e-16 -5.884790e-17 2.369318e-01) (1.515796e-15 3.423840e-17 5.088334e-04) (0.000000e+00 0.000000e+00 0.000000e+00))
0.068        	((1.281382e+00 -8.358058e-01 1.612610e-15) (2.144259e-03 -6.407970e-05 6.126912e-15) (0.000000e+00 0.000000e+00 0.000000e+00)) ((-1.312511e-16 -9.328515e-17 2.293167e-01) (-1.546449e-15 2.026693e-17 5.368417e-04) (0.000000e+00 0.000000e+00 0.000000e+00))
0.069        	((1.191715e+00 -8.382229e-01 -1.789689e-15) (2.238144e-03 -8.377504e-05 -5.792454e-15) (0.000000e+00 0.000000e+00 0.000000e+00)) ((-2.120032e-17 -2.827843e-17 2.185520e-01) (1.530501e-15 -1.081102e-16 5.664515e-04) (0.000000e+00 0.000000e+00 0.000000e+00))
0.07         	((1.084342e+00 -8.330470e-01 7.698709e-16) (2.336409e-03 -1.128579e-04 6.312869e-15) (0.000000e+00 0.000000e+00 0.000000e+00)) ((5.121727e-17 -6.136273e-17 2.051860e-01) (-1.579108e-15 1.587878e-16 5.971592e-04) (0.000000e+00 0.000000e+00 0.000000e+00))
0.071        	((1.006038e+00 -8.287709e-01 -6.364756e-16) (2.444095e-03 -1.498413e-04 -6.081410e-15) (0.000000e+00 0.000000e+00 0.000000e+00)) ((6.477216e-18 -5.947664e-17 1.957190e-01) (1.516346e-15 -2.379474e-16 6.304351e-04) (0.000000e+00 0.000000e+00 0.000000e+00))
0.072        	((8.888591e-01 -7.976823e-01 2.175429e-15) (2.552857e-03 -1.974441e-04 5.959050e-15) (0.000000e+00 0.000000e+00 0.000000e+00)) ((-1.051203e-16 -1.119035e-16 1.793979e-01) (-1.497353e-15 3.208832e-16 6.643136e-04) (0.000000e+00 0.000000e+00 0.000000e+00))
0.073        	((7.937651e-01 -7.717672e-01 4.606095e-16) (2.666423e-03 -2.604034e-04 -6.194748e-15) (0.000000e+00 0.000000e+00 0.000000e+00)) ((-2.926727e-17 -1.336825e-16 1.663674e-01) (1.477752e-15 -3.781790e-16 7.000957e-04) (0.000000e+00 0.000000e+00 0.000000e+00))
0.074        	((6.835271e-01 -7.286707e-01 2.763282e-14) (2.780126e-03 -3.423967e-04 3.226780e-15) (0.000000e+00 0.000000e+00 0.000000e+00)) ((-6.488217e-15 1.553352e-15 1.501863e-01) (-7.746091e-16 2.690838e-16 7.371367e-04) (0.000000e+00 0.000000e+00 0.000000e+00))
0.075        	((5.879856e-01 -6.831145e-01 -1.715595e-15) (2.895203e-03 -4.433425e-04 -5.830773e-15) (0.000000e+00 0.000000e+00 0.000000e+00)) ((-3.139184e-17 -5.480545e-17 1.355463e-01) (1.451408e-15 -5.325412e-16 7.760617e-04) (0.000000e+00 0.000000e+00 0.000000e+00))
0.076        	((4.866867e-01 -6.243186e-01 2.684105e-14) (3.008170e-03 -5.651109e-04 3.547231e-15) (0.000000e+00 0.000000e+00 0.000000e+00)) ((-6.313709e-15 2.218496e-15 1.191035e-01) (-7.450938e-16 3.425830e-16 8.163605e-04) (0.000000e+00 0.000000e+00 0.000000e+00))
0.077        	((3.751130e-01 -5.499653e-01 4.275193e-17) (3.113578e-03 -7.107796e-04 -6.105439e-15) (0.000000e+00 0.000000e+00 0.000000e+00)) ((-2.365440e-16 -7.018124e-17 1.002166e-01) (1.406884e-15 -6.768867e-16 8.571799e-04) (0.000000e+00 0.000000e+00 0.000000e+00))
0.078        	((2.723185e-01 -4.657399e-01 2.693384e-14) (3.208296e-03 -8.785722e-04 3.515617e-15) (0.000000e+00 0.000000e+00 0.000000e+00)) ((-6.034645e-15 2.918967e-15 8.126413e-02) (-6.852337e-16 4.052339e-16 8.980482e-04) (0.000000e+00 0.000000e+00 0.000000e+00))
0.079        	((1.731232e-01 -3.713266e-01 -3.540022e-16) (3.284073e-03 -1.065752e-03 -5.843220e-15) (0.000000e+00 0.000000e+00 0.000000e+00)) ((-7.697678e-17 -1.808291e-16 6.168076e-02) (1.245807e-15 -7.704699e-16 9.369757e-04) (0.000000e+00 0.000000e+00 0.000000e+00))
0.08         	((8.256952e-02 -2.636372e-01 2.761706e-14) (3.331344e-03 -1.262171e-03 3.166916e-15) (0.000000e+00 0.000000e+00 0.000000e+00)) ((-5.758945e-15 3.568558e-15 4.135863e-02) (-6.087943e-16 4.617765e-16 9.707249e-04) (0.000000e+00 0.000000e+00 0.000000e+00))
0.081        	((1.737151e-03 -1.433038e-01 -9.759311e-16) (3.342317e-03 -1.456723e-03 -5.842722e-15) (0.000000e+00 0.000000e+00 0.000000e+00)) ((2.346135e-17 -1.816935e-16 2.029519e-02) (1.140927e-15 -8.966968e-16 9.960263e-04) (0.000000e+00 0.000000e+00 0.000000e+00))
0.082        	((-7.002310e-02 -7.451223e-03 2.865231e-14) (3.315267e-03 -1.640596e-03 2.923925e-15) (0.000000e+00 0.000000e+00 0.000000e+00)) ((-5.353060e-15 4.177345e-15 -2.100221e-03) (-5.224359e-16 5.026403e-16 1.011104e-03) (0.000000e+00 0.000000e+00 0.000000e+00))
0.083        	((-1.243938e-01 1.406029e-01 -9.439605e-16) (3.250276e-03 -1.804591e-03 -5.485240e-15) (0.000000e+00 0.000000e+00 0.000000e+00)) ((2.174530e-18 -2.226290e-16 -2.512849e-02) (9.708414e-16 -9.537470e-16 1.014822e-03) (0.000000e+00 0.000000e+00 0.000000e+00))
0.084        	((-1.631302e-01 2.984275e-01 2.700180e-14) (3.143651e-03 -1.934058e-03 2.842398e-15) (0.000000e+00 0.000000e+00 0.000000e+00)) ((-4.671032e-15 4.498400e-15 -4.878698e-02) (-4.356689e-16 5.125861e-16 1.003677e-03) (0.000000e+00 0.000000e+00 0.000000e+00))
0.085        	((-1.751975e-01 4.566609e-01 7.135443e-16) (2.998810e-03 -2.016558e-03 -5.400849e-15) (0.000000e+00 0.000000e+00 0.000000e+00)) ((-2.043245e-16 4.381022e-17 -7.161004e-02) (8.350717e-16 -1.019052e-15 9.759547e-04) (0.000000e+00 0.000000e+00 0.000000e+00))
0.086        	((-1.618835e-01 6.146591e-01 2.639645e-14) (2.820290e-03 -2.040195e-03 2.828940e-15) (0.000000e+00 0.000000e+00 0.000000e+00)) ((-3.930536e-15 4.879988e-15 -9.396953e-02) (-3.766664e-16 5.608243e-16 9.300103e-04) (0.000000e+00 0.000000e+00 0.000000e+00))
0.087        	((-1.307255e-01 7.767084e-01 7.925795e-16) (2.611454e-03 -2.004397e-03 -4.853843e-15) (0.000000e+00 0.000000e+00 0.000000e+00)) ((-2.252214e-16 8.467097e-17 -1.170113e-01) (6.419279e-16 -9.987735e-16 8.670661e-04) (0.000000e+00 0.000000e+00 0.000000e+00))
0.088        	((-7.483584e-02 9.199926e-01 2.600232e-14) (2.388987e-03 -1.927189e-03 2.309372e-15) (0.000000e+00 0.000000e+00 0.000000e+00)) ((-3.257260e-15 5.073322e-15 -1.375337e-01) (-2.519318e-16 5.110730e-16 7.947975e-04) (0.000000e+00 0.000000e+00 0.000000e+00))
0.089        	((9.341842e-03 1.079564e+00 -2.162054e-14) (2.163795e-03 -1.830974e-03 -2.328844e-15) (0.000000e+00 0.000000e+00 0.000000e+00)) ((2.525920e-15 -5.047820e-15 -1.612329e-01) (2.125979e-16 -4.889278e-16 7.207473e-04) (0.000000e+00 0.000000e+00 0.000000e+00))
0.09         	((1.094577e-01 1.224828e+00 2.553851e-14) (1.947605e-03 -1.700954e-03 1.399434e-15) (0.000000e+00 0.000000e+00 0.000000e+00)) ((-2.526955e-15 5.113063e-15 -1.838454e-01) (-6.729805e-17 3.032902e-16 6.406746e-04) (0.000000e+00 0.000000e+00 0.000000e+00))
0.091        	((2.240283e-01 1.334345e+00 -2.001075e-14) (1.755192e-03 -1.568454e-03 -3.323949e-15) (0.000000e+00 0.000000e+00 0.000000e+00)) ((1.774330e-15 -5.000507e-15 -2.023839e-01) (2.729710e-16 -7.229376e-16 5.638818e-04) (0.000000e+00 0.000000e+00 0.000000e+00))
0.092        	((3.490483e-01 1.440151e+00 2.209576e-14) (1.569947e-03 -1.428948e-03 1.005040e-15) (0.000000e+00 0.000000e+00 0.000000e+00)) ((-1.618196e-15 4.867230e-15 -2.217048e-01) (-3.335908e-18 2.024566e-16 4.887494e-04) (0.000000e+00 0.000000e+00 0.000000e+00))
0.093        	((4.859306e-01 1.514688e+00 -1.635203e-14) (1.390458e-03 -1.281140e-03 -2.412157e-15) (0.000000e+00 0.000000e+00 0.000000e+00)) ((8.799463e-16 -4.346255e-15 -2.380097e-01) (9.873610e-17 -4.627155e-16 4.153824e-04) (0.000000e+00 0.000000e+00 0.000000e+00))
0.094        	((6.283636e-01 1.585947e+00 1.958517e-14) (1.214208e-03 -1.116346e-03 6.587351e-16) (0.000000e+00 0.000000e+00 0.000000e+00)) ((-9.272616e-16 4.341833e-15 -2.552616e-01) (3.047502e-17 1.425178e-16 3.412053e-04) (0.000000e+00 0.000000e+00 0.000000e+00))
0.095        	((7.775683e-01 1.625997e+00 -7.922734e-15) (1.047996e-03 -9.348860e-04 -1.515654e-15) (0.000000e+00 0.000000e+00 0.000000e+00)) ((2.442899e-16 -2.440210e-15 -2.696960e-01) (-5.315512e-18 -3.111335e-16 2.665384e-04) (0.000000e+00 0.000000e+00 0.000000e+00))
0.096        	((9.253183e-01 1.653282e+00 9.369646e-15) (8.902147e-04 -7.353738e-04 1.671243e-15) (0.000000e+00 0.000000e+00 0.000000e+00)) ((-1.109163e-16 2.369738e-15 -2.835289e-01) (1.320242e-17 3.394511e-16 1.911890e-04) (0.000000e+00 0.000000e+00 0.000000e+00))
0.097        	((1.072022e+00 1.655668e+00 -1.243107e-14) (7.437933e-04 -5.210112e-04 -1.066900e-15) (0.000000e+00 0.000000e+00 0.000000e+00)) ((1.176248e-17 -2.839083e-15 -2.952009e-01) (-4.559418e-17 -2.851544e-16 1.162809e-04) (0.000000e+00 0.000000e+00 0.000000e+00))
0.098        	((1.210872e+00 1.635113e+00 1.327131e-14) (6.124346e-04 -2.960060e-04 7.804570e-16) (0.000000e+00 0.000000e+00 0.000000e+00)) ((1.514321e-16 3.117233e-15 -3.045480e-01) (3.754101e-17 8.408209e-17 4.284366e-05) (0.000000e+00 0.000000e+00 0.000000e+00))
0.099        	((1.341448e+00 1.589827e+00 -8.270889e-15) (5.021495e-04 -6.689651e-05 -9.290653e-16) (0.000000e+00 0.000000e+00 0.000000e+00)) ((-3.440973e-16 -2.011346e-15 -3.113862e-01) (-4.984997e-17 -1.892454e-16 -2.795424e-05) (0.000000e+00 0.000000e+00 0.000000e+00))
0.1          	((1.461354e+00 1.529987e+00 6.374426e-15) (4.113008e-04 1.574920e-04 9.431285e-16) (0.000000e+00 0.000000e+00 0.000000e+00)) ((2.243033e-16 1.337616e-15 -3.167464e-01) (3.954209e-17 1.187763e-16 -9.416835e-05) (0.000000e+00 0.000000e+00 0.000000e+00))
0.101        	((1.564002e+00 1.445429e+00 -5.646332e-15) (3.402489e-04 3.763973e-04 -6.773746e-16) (0.000000e+00 0.000000e+00 0.000000e+00)) ((-5.451781e-16 -1.345032e-15 -3.188421e-01) (-2.610478e-17 -7.795805e-17 -1.556735e-04) (0.000000e+00 0.000000e+00 0.000000e+00))
0.102        	((1.641413e+00 1.339987e+00 6.398161e-15) (2.834804e-04 5.855424e-04 -3.482775e-16) (0.000000e+00 0.000000e+00 0.000000e+00)) ((3.156360e-16 1.280127e-15 -3.172366e-01) (1.507320e-17 -3.724602e-17 -2.109962e-04) (0.000000e+00 0.000000e+00 0.000000e+00))
0.103        	((1.695478e+00 1.222992e+00 -3.630172e-15) (2.368464e-04 7.807323e-04 5.581766e-17) (0.000000e+00 0.000000e+00 0.000000e+00)) ((-3.969926e-16 -6.843285e-16 -3.129603e-01) (3.597195e-17 6.105375e-17 -2.586146e-04) (0.000000e+00 0.000000e+00 0.000000e+00))
0.104        	((1.724370e+00 1.085569e+00 1.929769e-15) (2.002517e-04 9.572569e-04 -3.651779e-16) (0.000000e+00 0.000000e+00 0.000000e+00)) ((1.429108e-16 2.758848e-16 -3.049943e-01) (-5.502145e-17 -7.167744e-17 -2.975027e-04) (0.000000e+00 0.000000e+00 0.000000e+00))
0.105        	((1.714643e+00 9.363233e-01 -1.462857e-15) (1.721856e-04 1.116789e-03 4.409026e-16) (0.000000e+00 0.000000e+00 0.000000e+00)) ((-1.944869e-16 -2.107932e-16 -2.923449e-01) (9.349928e-17 1.289590e-16 -3.284168e-04) (0.000000e+00 0.000000e+00 0.000000e+00))
0.106        	((1.689010e+00 7.950596e-01 2.077672e-16) (1.553899e-04 1.262147e-03 -1.205095e-15) (0.000000e+00 0.000000e+00 0.000000e+00)) ((-1.292259e-16 7.307303e-17 -2.792175e-01) (-1.923332e-16 -2.476409e-16 -3.533874e-04) (0.000000e+00 0.000000e+00 0.000000e+00))
0.107        	((1.613263e+00 6.393207e-01 -3.790871e-15) (1.521987e-04 1.392201e-03 1.918712e-15) (0.000000e+00 0.000000e+00 0.000000e+00)) ((-6.154194e-16 -6.645927e-16 -2.594134e-01) (3.424177e-16 3.908914e-16 -3.727779e-04) (0.000000e+00 0.000000e+00 0.000000e+00))
0.108        	((1.519234e+00 4.959844e-01 1.068430e-15) (1.543595e-04 1.506505e-03 -1.763891e-15) (0.000000e+00 0.000000e+00 0.000000e+00)) ((-4.542878e-17 2.306879e-16 -2.387237e-01) (-3.314438e-16 -3.121945e-16 -3.856488e-04) (0.000000e+00 0.000000e+00 0.000000e+00))
0.109        	((1.387877e+00 3.596411e-01 -8.308014e-15) (1.607887e-04 1.606562e-03 3.069412e-15) (0.000000e+00 0.000000e+00 0.000000e+00)) ((-1.607289e-15 -1.241690e-15 -2.139503e-01) (6.108594e-16 5.068101e-16 -3.920691e-04) (0.000000e+00 0.000000e+00 0.000000e+00))
0.11         	((1.237338e+00 2.366253e-01 4.805597e-16) (1.648399e-04 1.689424e-03 -2.316797e-15) (0.000000e+00 0.000000e+00 0.000000e+00)) ((6.664820e-17 2.164401e-16 -1.877944e-01) (-5.150365e-16 -3.515161e-16 -3.908777e-04) (0.000000e+00 0.000000e+00 0.000000e+00))
0.111        	((1.060690e+00 1.346495e-01 -1.221923e-14) (1.659337e-04 1.757607e-03 4.216792e-15) (0.000000e+00 0.000000e+00 0.000000e+00)) ((-2.492793e-15 -1.604059e-15 -1.591448e-01) (9.131970e-16 5.594561e-16 -3.827334e-04) (0.000000e+00 0.000000e+00 0.000000e+00))