# Forces     
# CofR       : (0.000000e+00 0.000000e+00 0.000000e+00)
# Time       forces(pressure viscous porous)	moments(pressure viscous porous)
0.001        	((3.031546e+01 6.618238e+00 1.035660e-15) (2.601690e-03 3.061225e-03 -4.093602e-16) (0.000000e+00 0.000000e+00 0.000000e+00)) ((-1.967012e-17 1.523858e-16 -4.549350e+00) (-4.498817e-17 -4.133376e-17 -1.063023e-03) (0.000000e+00 0.000000e+00 0.000000e+00))
0.002        	((8.771451e-01 -1.818173e-01 -1.312900e-15) (2.384679e-03 2.879944e-03 -3.541391e-16) (0.000000e+00 0.000000e+00 0.000000e+00)) ((-2.960596e-16 -1.087676e-16 -1.349946e-01) (-1.913874e-18 -2.015360e-17 -9.898303e-04) (0.000000e+00 0.000000e+00 0.000000e+00))
0.003        	((5.103828e-01 -2.036626e-01 -1.373080e-15) (2.176017e-03 2.661814e-03 5.186225e-16) (0.000000e+00 0.000000e+00 0.000000e+00)) ((-1.861224e-16 -1.060039e-16 -8.005096e-02) (-7.360712e-18 3.364193e-17 -9.160323e-04) (0.000000e+00 0.000000e+00 0.000000e+00))
0.004        	((4.486932e-01 -1.878403e-01 -1.603829e-15) (2.013669e-03 2.480415e-03 -3.640678e-16) (0.000000e+00 0.000000e+00 0.000000e+00)) ((-3.390076e-16 -1.870726e-16 -7.085848e-02) (2.953773e-17 -5.659805e-18 -8.568638e-04) (0.000000e+00 0.000000e+00 0.000000e+00))
0.005        	((4.083563e-01 -1.718912e-01 -1.755434e-15) (1.889531e-03 2.337370e-03 5.347518e-16) (0.000000e+00 0.000000e+00 0.000000e+00)) ((-4.192645e-16 -1.346243e-16 -6.487401e-02) (3.948777e-17 4.050746e-17 -8.105185e-04) (0.000000e+00 0.000000e+00 0.000000e+00))
0.006        	((3.666048e-01 -1.579452e-01 5.536388e-16) (1.786770e-03 2.221722e-03 -4.360728e-16) (0.000000e+00 0.000000e+00 0.000000e+00)) ((-1.054060e-16 6.934542e-17 -5.868111e-02) (2.473741e-17 -2.483248e-17 -7.720315e-04) (0.000000e+00 0.000000e+00 0.000000e+00))
0.007        	((3.440882e-01 -1.493030e-01 1.855421e-15) (1.698944e-03 2.127399e-03 -2.390758e-16) (0.000000e+00 0.000000e+00 0.000000e+00)) ((1.750068e-16 1.811265e-16 -5.538304e-02) (-1.473031e-17 -1.741091e-17 -7.391879e-04) (0.000000e+00 0.000000e+00 0.000000e+00))
0.008        	((3.157351e-01 -1.419041e-01 3.295888e-16) (1.624890e-03 2.049545e-03 4.489375e-17) (0.000000e+00 0.000000e+00 0.000000e+00)) ((-1.637679e-16 8.409198e-17 -5.121638e-02) (4.682209e-17 9.916564e-18 -7.112667e-04) (0.000000e+00 0.000000e+00 0.000000e+00))
0.009        	((2.923633e-01 -1.373325e-01 2.474040e-16) (1.561175e-03 1.983359e-03 1.172378e-17) (0.000000e+00 0.000000e+00 0.000000e+00)) ((-2.490343e-16 3.593503e-19 -4.780947e-02) (5.270070e-17 4.028888e-18 -6.869326e-04) (0.000000e+00 0.000000e+00 0.000000e+00))
0.01         	((2.690603e-01 -1.347377e-01 -2.882786e-16) (1.512858e-03 1.926870e-03 -2.611951e-18) (0.000000e+00 0.000000e+00 0.000000e+00)) ((-1.177045e-16 1.666092e-17 -4.442690e-02) (-3.733717e-17 2.835698e-18 -6.675749e-04) (0.000000e+00 0.000000e+00 0.000000e+00))
0.011        	((2.509985e-01 -1.298879e-01 -1.467884e-15) (1.466834e-03 1.877362e-03 3.679784e-17) (0.000000e+00 0.000000e+00 0.000000e+00)) ((-3.232690e-16 -1.752858e-16 -4.182287e-02) (2.803207e-17 9.410887e-18 -6.493025e-04) (0.000000e+00 0.000000e+00 0.000000e+00))
0.012        	((2.340652e-01 -1.242738e-01 1.652890e-16) (1.422394e-03 1.833394e-03 -1.938673e-16) (0.000000e+00 0.000000e+00 0.000000e+00)) ((-8.519069e-17 1.230389e-17 -3.938326e-02) (2.294725e-17 -1.051201e-17 -6.318395e-04) (0.000000e+00 0.000000e+00 0.000000e+00))
0.013        	((2.166858e-01 -1.209307e-01 -8.121992e-16) (1.380088e-03 1.793679e-03 1.725177e-16) (0.000000e+00 0.000000e+00 0.000000e+00)) ((-2.320528e-16 -1.201406e-16 -3.689368e-02) (4.064334e-17 1.684232e-17 -6.152138e-04) (0.000000e+00 0.000000e+00 0.000000e+00))
0.014        	((1.990057e-01 -1.198631e-01 1.866210e-15) (1.339241e-03 1.756461e-03 -3.890157e-16) (0.000000e+00 0.000000e+00 0.000000e+00)) ((2.464541e-16 2.330780e-16 -3.438399e-02) (-5.463317e-17 -3.135080e-17 -5.990733e-04) (0.000000e+00 0.000000e+00 0.000000e+00))
0.015        	((1.823079e-01 -1.180598e-01 4.639740e-17) (1.300360e-03 1.722325e-03 1.585919e-16) (0.000000e+00 0.000000e+00 0.000000e+00)) ((3.123972e-18 1.583387e-17 -3.202123e-02) (-8.520705e-18 9.312424e-18 -5.836379e-04) (0.000000e+00 0.000000e+00 0.000000e+00))
0.016        	((1.705449e-01 -1.129619e-01 -3.122424e-16) (1.263462e-03 1.692651e-03 -2.558553e-16) (0.000000e+00 0.000000e+00 0.000000e+00)) ((1.118981e-16 3.554594e-17 -3.035936e-02) (-3.191140e-17 -4.937757e-18 -5.691186e-04) (0.000000e+00 0.000000e+00 0.000000e+00))
0.017        	((1.479846e-01 -1.124836e-01 -1.306630e-15) (1.227201e-03 1.664155e-03 4.017084e-16) (0.000000e+00 0.000000e+00 0.000000e+00)) ((-2.135895e-16 -5.892758e-17 -2.714678e-02) (5.712803e-17 2.295873e-17 -5.546932e-04) (0.000000e+00 0.000000e+00 0.000000e+00))
0.018        	((1.277576e-01 -1.139559e-01 4.591207e-16) (1.191185e-03 1.635551e-03 -1.990145e-16) (0.000000e+00 0.000000e+00 0.000000e+00)) ((1.944967e-16 9.534881e-17 -2.432629e-02) (-2.955588e-17 -2.003744e-17 -5.401088e-04) (0.000000e+00 0.000000e+00 0.000000e+00))
0.019        	((1.092280e-01 -1.087369e-01 -1.065417e-15) (1.157501e-03 1.612779e-03 1.808400e-16) (0.000000e+00 0.000000e+00 0.000000e+00)) ((-2.162285e-16 -3.138004e-17 -2.165822e-02) (-2.345845e-17 4.054456e-18 -5.267516e-04) (0.000000e+00 0.000000e+00 0.000000e+00))
0.02         	((9.057132e-02 -1.061161e-01 3.529154e-16) (1.125414e-03 1.592995e-03 -1.650018e-16) (0.000000e+00 0.000000e+00 0.000000e+00)) ((2.093876e-16 2.781044e-17 -1.901806e-02) (-5.430202e-17 -1.049711e-17 -5.139796e-04) (0.000000e+00 0.000000e+00 0.000000e+00))
0.021        	((7.298113e-02 -1.045541e-01 3.264888e-17) (1.093410e-03 1.574331e-03 1.405083e-16) (0.000000e+00 0.000000e+00 0.000000e+00)) ((-9.203911e-17 6.172970e-17 -1.656524e-02) (1.029197e-17 -1.004948e-18 -5.011500e-04) (0.000000e+00 0.000000e+00 0.000000e+00))
0.022        	((4.677695e-02 -1.066056e-01 -1.994974e-15) (1.061707e-03 1.554939e-03 -3.435667e-16) (0.000000e+00 0.000000e+00 0.000000e+00)) ((8.868143e-17 -1.059369e-16 -1.293833e-02) (-3.142859e-17 -2.241771e-17 -4.880966e-04) (0.000000e+00 0.000000e+00 0.000000e+00))
0.023        	((2.927632e-02 -1.002667e-01 4.791866e-15) (1.031909e-03 1.540564e-03 -3.344627e-16) (0.000000e+00 0.000000e+00 0.000000e+00)) ((-1.428641e-16 2.989166e-16 -1.040823e-02) (3.687791e-17 -9.568660e-18 -4.759470e-04) (0.000000e+00 0.000000e+00 0.000000e+00))
0.024        	((5.592412e-03 -9.915255e-02 -5.557433e-15) (1.002242e-03 1.526832e-03 8.157037e-16) (0.000000e+00 0.000000e+00 0.000000e+00)) ((6.819210e-17 -3.335531e-16 -7.112586e-03) (5.321381e-17 4.302732e-17 -4.636737e-04) (0.000000e+00 0.000000e+00 0.000000e+00))
0.025        	((-1.579903e-02 -9.474675e-02 7.044862e-15) (9.738846e-04 1.516314e-03 -7.236310e-16) (0.000000e+00 0.000000e+00 0.000000e+00)) ((6.049100e-17 3.718088e-16 -4.075516e-03) (-2.173036e-17 -3.899918e-17 -4.518750e-04) (0.000000e+00 0.000000e+00 0.000000e+00))
0.026        	((-4.433337e-02 -9.136631e-02 -4.330173e-15) (9.468863e-04 1.507763e-03 5.260787e-16) (0.000000e+00 0.000000e+00 0.000000e+00)) ((-2.292493e-16 -1.494928e-16 -4.140671e-05) (2.549545e-17 2.804801e-17 -4.403648e-04) (0.000000e+00 0.000000e+00 0.000000e+00))
0.027        	((-6.400819e-02 -8.975387e-02 6.911262e-15) (9.193317e-04 1.499251e-03 -9.834479e-16) (0.000000e+00 0.000000e+00 0.000000e+00)) ((9.974784e-17 3.581813e-16 2.613384e-03) (-3.067507e-17 -5.225585e-17 -4.284204e-04) (0.000000e+00 0.000000e+00 0.000000e+00))
0.028        	((-9.771331e-02 -7.825758e-02 -4.969930e-15) (8.937308e-04 1.497112e-03 2.951625e-16) (0.000000e+00 0.000000e+00 0.000000e+00)) ((-1.643588e-16 -2.004578e-16 7.654821e-03) (3.047003e-17 1.998322e-17 -4.173780e-04) (0.000000e+00 0.000000e+00 0.000000e+00))
0.029        	((-1.146681e-01 -7.735136e-02 6.138059e-15) (8.675144e-04 1.493812e-03 -8.986295e-16) (0.000000e+00 0.000000e+00 0.000000e+00)) ((-1.667932e-16 3.015758e-16 9.840383e-03) (7.191234e-18 -4.571227e-17 -4.056900e-04) (0.000000e+00 0.000000e+00 0.000000e+00))
0.03         	((-1.466945e-01 -6.854800e-02 -3.850569e-15) (8.420366e-04 1.493353e-03 1.890099e-16) (0.000000e+00 0.000000e+00 0.000000e+00)) ((-9.840898e-18 -1.410163e-16 1.449706e-02) (6.937329e-18 1.026715e-17 -3.940833e-04) (0.000000e+00 0.000000e+00 0.000000e+00))
0.031        	((-1.751481e-01 -6.161923e-02 7.625789e-15) (8.159324e-04 1.494677e-03 -1.054110e-15) (0.000000e+00 0.000000e+00 0.000000e+00)) ((2.457224e-16 4.171320e-16 1.853084e-02) (-5.511239e-17 -5.846679e-17 -3.821326e-04) (0.000000e+00 0.000000e+00 0.000000e+00))
0.032        	((-2.028008e-01 -4.954846e-02 -4.696563e-15) (7.911992e-04 1.500073e-03 3.107915e-16) (0.000000e+00 0.000000e+00 0.000000e+00)) ((-4.230193e-17 -1.601745e-16 2.267603e-02) (-1.396263e-17 8.570440e-18 -3.704608e-04) (0.000000e+00 0.000000e+00 0.000000e+00))
0.033        	((-2.242687e-01 -4.474980e-02 6.358301e-15) (7.661301e-04 1.505272e-03 -1.132625e-15) (0.000000e+00 0.000000e+00 0.000000e+00)) ((2.425660e-16 3.202826e-16 2.555254e-02) (-4.310396e-17 -4.080081e-17 -3.582477e-04) (0.000000e+00 0.000000e+00 0.000000e+00))
0.034        	((-2.674021e-01 -2.721088e-02 -3.424173e-15) (7.409162e-04 1.514848e-03 4.601906e-16) (0.000000e+00 0.000000e+00 0.000000e+00)) ((-4.693408e-17 -7.082885e-17 3.211127e-02) (-4.117120e-17 8.623013e-18 -3.458945e-04) (0.000000e+00 0.000000e+00 0.000000e+00))
0.035        	((-2.791451e-01 -2.038477e-02 5.780444e-15) (7.170970e-04 1.526114e-03 -1.426902e-15) (0.000000e+00 0.000000e+00 0.000000e+00)) ((5.573416e-17 2.819954e-16 3.368229e-02) (-2.769654e-17 -5.200901e-17 -3.335221e-04) (0.000000e+00 0.000000e+00 0.000000e+00))
0.036        	((-3.217184e-01 -2.203760e-03 -5.012394e-15) (6.920782e-04 1.540262e-03 8.540243e-16) (0.000000e+00 0.000000e+00 0.000000e+00)) ((-4.879483e-16 -8.911140e-17 4.013787e-02) (4.441111e-17 2.239790e-17 -3.204315e-04) (0.000000e+00 0.000000e+00 0.000000e+00))
0.037        	((-3.494806e-01 1.190810e-02 5.509602e-15) (6.671901e-04 1.557187e-03 -1.438605e-15) (0.000000e+00 0.000000e+00 0.000000e+00)) ((-2.008763e-19 3.002458e-16 4.428242e-02) (-4.015174e-17 -4.558211e-17 -3.069805e-04) (0.000000e+00 0.000000e+00 0.000000e+00))
0.038        	((-3.734721e-01 2.681388e-02 -3.063664e-15) (6.432556e-04 1.576794e-03 -1.942763e-16) (0.000000e+00 0.000000e+00 0.000000e+00)) ((-6.429517e-17 -8.560629e-17 4.794109e-02) (-5.157643e-17 -1.877306e-17 -2.932523e-04) (0.000000e+00 0.000000e+00 0.000000e+00))
0.039        	((-4.267568e-01 5.597555e-02 4.115472e-15) (6.186450e-04 1.601207e-03 -6.221369e-16) (0.000000e+00 0.000000e+00 0.000000e+00)) ((2.532814e-16 2.156584e-16 5.643949e-02) (-4.801501e-17 -1.106427e-17 -2.788703e-04) (0.000000e+00 0.000000e+00 0.000000e+00))
0.04         	((-4.334370e-01 6.223792e-02 -3.117799e-15) (5.949210e-04 1.626095e-03 -7.504006e-17) (0.000000e+00 0.000000e+00 0.000000e+00)) ((-1.150453e-16 -5.987870e-17 5.711683e-02) (-3.055993e-17 -1.499871e-17 -2.640743e-04) (0.000000e+00 0.000000e+00 0.000000e+00))
0.041        	((-4.692157e-01 8.645328e-02 4.258241e-15) (5.714330e-04 1.654291e-03 -8.605977e-16) (0.000000e+00 0.000000e+00 0.000000e+00)) ((1.371648e-16 1.792497e-16 6.287307e-02) (-3.241604e-17 -1.598978e-17 -2.487288e-04) (0.000000e+00 0.000000e+00 0.000000e+00))
0.042        	((-5.090781e-01 1.126123e-01 -9.293820e-15) (5.480361e-04 1.684499e-03 1.394991e-15) (0.000000e+00 0.000000e+00 0.000000e+00)) ((-5.325369e-16 -2.394731e-16 6.924013e-02) (6.332514e-17 3.530344e-17 -2.327634e-04) (0.000000e+00 0.000000e+00 0.000000e+00))
0.043        	((-5.312447e-01 1.335143e-01 1.468955e-14) (5.271745e-04 1.716010e-03 -2.314680e-15) (0.000000e+00 0.000000e+00 0.000000e+00)) ((6.053543e-16 5.349307e-16 7.291035e-02) (-9.588021e-17 -6.415364e-17 -2.167616e-04) (0.000000e+00 0.000000e+00 0.000000e+00))
0.044        	((-5.847959e-01 1.771390e-01 -1.461295e-14) (5.081156e-04 1.751307e-03 2.469024e-15) (0.000000e+00 0.000000e+00 0.000000e+00)) ((-7.438498e-16 -4.277642e-16 8.233648e-02) (1.459649e-16 5.465597e-17 -2.005254e-04) (0.000000e+00 0.000000e+00 0.000000e+00))
0.045        	((-5.885601e-01 1.858433e-01 1.459048e-14) (4.898687e-04 1.784402e-03 -2.904711e-15) (0.000000e+00 0.000000e+00 0.000000e+00)) ((6.026050e-16 4.472165e-16 8.259066e-02) (-1.492048e-16 -7.253187e-17 -1.836923e-04) (0.000000e+00 0.000000e+00 0.000000e+00))
0.046        	((-6.270571e-01 2.250756e-01 -1.437537e-14) (4.724206e-04 1.820562e-03 2.525098e-15) (0.000000e+00 0.000000e+00 0.000000e+00)) ((-7.076035e-16 -3.567041e-16 8.971407e-02) (1.107644e-16 6.073154e-17 -1.661629e-04) (0.000000e+00 0.000000e+00 0.000000e+00))
0.047        	((-6.725627e-01 2.684148e-01 1.430121e-14) (4.539325e-04 1.857280e-03 -2.669729e-15) (0.000000e+00 0.000000e+00 0.000000e+00)) ((6.235112e-16 5.036337e-16 9.795371e-02) (-1.194219e-16 -6.367399e-17 -1.473429e-04) (0.000000e+00 0.000000e+00 0.000000e+00))
0.048        	((-6.968989e-01 3.030957e-01 -1.329149e-14) (4.367708e-04 1.894906e-03 2.485980e-15) (0.000000e+00 0.000000e+00 0.000000e+00)) ((-5.925170e-16 -3.422287e-16 1.029022e-01) (1.203273e-16 5.267133e-17 -1.279145e-04) (0.000000e+00 0.000000e+00 0.000000e+00))
0.049        	((-6.995851e-01 3.221759e-01 1.355644e-14) (4.228037e-04 1.932065e-03 -2.565678e-15) (0.000000e+00 0.000000e+00 0.000000e+00)) ((5.268097e-16 5.458051e-16 1.038556e-01) (-1.069554e-16 -6.315375e-17 -1.085037e-04) (0.000000e+00 0.000000e+00 0.000000e+00))
0.05         	((-7.397319e-01 3.729211e-01 -1.274060e-14) (4.079563e-04 1.969243e-03 2.323036e-15) (0.000000e+00 0.000000e+00 0.000000e+00)) ((-4.264706e-16 -3.502765e-16 1.120508e-01) (8.884529e-17 5.504772e-17 -8.791097e-05) (0.000000e+00 0.000000e+00 0.000000e+00))
0.051        	((-7.655730e-01 4.138116e-01 1.424308e-14) (3.929171e-04 2.004873e-03 -2.542890e-15) (0.000000e+00 0.000000e+00 0.000000e+00)) ((7.465636e-16 2.718155e-16 1.176155e-01) (-1.276011e-16 -5.290521e-17 -6.644800e-05) (0.000000e+00 0.000000e+00 0.000000e+00))
0.052        	((-7.779852e-01 4.489661e-01 -1.240198e-14) (3.796445e-04 2.039146e-03 1.994835e-15) (0.000000e+00 0.000000e+00 0.000000e+00)) ((-5.087912e-16 -2.154088e-16 1.211565e-01) (8.173339e-17 3.612593e-17 -4.473051e-05) (0.000000e+00 0.000000e+00 0.000000e+00))
0.053        	((-7.939438e-01 4.897388e-01 1.390923e-14) (3.694374e-04 2.071586e-03 -2.681757e-15) (0.000000e+00 0.000000e+00 0.000000e+00)) ((7.550937e-16 2.749593e-16 1.256271e-01) (-1.551210e-16 -4.207909e-17 -2.314789e-05) (0.000000e+00 0.000000e+00 0.000000e+00))
0.054        	((-8.058335e-01 5.295735e-01 -1.359952e-14) (3.601138e-04 2.102127e-03 2.218634e-15) (0.000000e+00 0.000000e+00 0.000000e+00)) ((-5.870297e-16 -2.961307e-16 1.295566e-01) (9.019863e-17 5.111490e-17 -1.250644e-06) (0.000000e+00 0.000000e+00 0.000000e+00))
0.055        	((-8.174248e-01 5.661958e-01 -1.094184e-14) (3.482446e-04 2.129382e-03 -2.244896e-15) (0.000000e+00 0.000000e+00 0.000000e+00)) ((-3.440119e-15 6.275585e-15 1.329694e-01) (-8.170349e-17 -5.340634e-17 2.178593e-05) (0.000000e+00 0.000000e+00 0.000000e+00))
0.056        	((-8.307638e-01 6.148185e-01 -1.425864e-14) (3.363909e-04 2.155900e-03 2.349846e-15) (0.000000e+00 0.000000e+00 0.000000e+00)) ((-7.482276e-16 -1.146887e-17 1.379543e-01) (1.267724e-16 2.485106e-18 4.536183e-05) (0.000000e+00 0.000000e+00 0.000000e+00))
0.057        	((-8.048784e-01 6.152288e-01 -1.223764e-14) (3.305016e-04 2.178332e-03 -2.690207e-15) (0.000000e+00 0.000000e+00 0.000000e+00)) ((-3.168345e-15 7.024926e-15 1.337179e-01) (-1.180425e-16 -6.224818e-17 6.750767e-05) (0.000000e+00 0.000000e+00 0.000000e+00))
0.058        	((-8.295209e-01 6.823044e-01 -1.360330e-14) (3.203160e-04 2.200505e-03 3.435277e-15) (0.000000e+00 0.000000e+00 0.000000e+00)) ((-7.256713e-16 -1.066955e-16 1.417591e-01) (1.714343e-16 4.261281e-17 9.126298e-05) (0.000000e+00 0.000000e+00 0.000000e+00))
0.059        	((-8.123574e-01 6.928714e-01 -8.077166e-15) (3.109607e-04 2.219963e-03 -4.390937e-15) (0.000000e+00 0.000000e+00 0.000000e+00)) ((-2.419407e-15 7.885105e-15 1.393680e-01) (-2.284509e-16 -5.795244e-17 1.148754e-04) (0.000000e+00 0.000000e+00 0.000000e+00))
0.06         	((-8.071524e-01 7.188821e-01 -2.067299e-14) (3.014767e-04 2.236703e-03 4.052722e-15) (0.000000e+00 0.000000e+00 0.000000e+00)) ((-1.178874e-15 -1.006666e-16 1.397349e-01) (1.972683e-16 4.998036e-17 1.385091e-04) (0.000000e+00 0.000000e+00 0.000000e+00))
0.061        	((-7.983105e-01 7.434058e-01 -8.111857e-15) (2.907136e-04 2.252150e-03 -4.044161e-15) (0.000000e+00 0.000000e+00 0.000000e+00)) ((-1.933829e-15 8.038859e-15 1.396051e-01) (-1.956331e-16 -2.248529e-17 1.624697e-04) (0.000000e+00 0.000000e+00 0.000000e+00))
0.062        	((-7.830518e-01 7.566306e-01 -1.981297e-14) (2.807327e-04 2.265422e-03 3.801692e-15) (0.000000e+00 0.000000e+00 0.000000e+00)) ((-1.011667e-15 1.292834e-19 1.374869e-01) (1.897375e-16 8.178484e-18 1.860587e-04) (0.000000e+00 0.000000e+00 0.000000e+00))
0.063        	((-7.695069e-01 7.700425e-01 -8.943533e-15) (2.703920e-04 2.276829e-03 -3.906420e-15) (0.000000e+00 0.000000e+00 0.000000e+00)) ((-1.239968e-15 8.226377e-15 1.353838e-01) (-2.110380e-16 3.682634e-17 2.095075e-04) (0.000000e+00 0.000000e+00 0.000000e+00))
0.064        	((-7.578496e-01 7.858740e-01 -2.040493e-14) (2.583451e-04 2.287140e-03 3.623755e-15) (0.000000e+00 0.000000e+00 0.000000e+00)) ((-1.146052e-15 2.473899e-16 1.335886e-01) (1.985524e-16 -3.851124e-17 2.330578e-04) (0.000000e+00 0.000000e+00 0.000000e+00))
0.065        	((-7.356873e-01 7.718848e-01 -1.055430e-14) (2.478234e-04 2.294111e-03 -3.336467e-15) (0.000000e+00 0.000000e+00 0.000000e+00)) ((-6.139735e-16 8.644367e-15 1.270141e-01) (-1.569958e-16 -6.335794e-18 2.555450e-04) (0.000000e+00 0.000000e+00 0.000000e+00))
0.066        	((-7.231893e-01 7.901383e-01 -1.760829e-14) (2.365366e-04 2.300780e-03 2.990828e-15) (0.000000e+00 0.000000e+00 0.000000e+00)) ((-8.144874e-16 -8.474876e-17 1.253450e-01) (1.397046e-16 7.525916e-18 2.779679e-04) (0.000000e+00 0.000000e+00 0.000000e+00))
0.067        	((-7.066570e-01 7.944833e-01 -1.076289e-14) (2.256464e-04 2.305234e-03 -3.294565e-15) (0.000000e+00 0.000000e+00 0.000000e+00)) ((2.007838e-16 8.508168e-15 1.214305e-01) (-1.629427e-16 5.465291e-17 2.995718e-04) (0.000000e+00 0.000000e+00 0.000000e+00))
0.068        	((-6.846266e-01 7.673160e-01 -1.805300e-14) (2.180872e-04 2.304316e-03 3.120578e-15) (0.000000e+00 0.000000e+00 0.000000e+00)) ((-8.196651e-16 1.924581e-16 1.126895e-01) (1.320726e-16 -1.962675e-17 3.189646e-04) (0.000000e+00 0.000000e+00 0.000000e+00))
0.069        	((-6.696308e-01 7.897572e-01 -1.292546e-14) (2.103440e-04 2.302187e-03 -3.202567e-15) (0.000000e+00 0.000000e+00 0.000000e+00)) ((9.574064e-16 8.731347e-15 1.113321e-01) (-1.359342e-16 4.225932e-17 3.377160e-04) (0.000000e+00 0.000000e+00 0.000000e+00))
0.07         	((-6.471654e-01 7.993784e-01 -1.663160e-14) (2.055377e-04 2.296794e-03 2.606196e-15) (0.000000e+00 0.000000e+00 0.000000e+00)) ((-7.447353e-16 2.156851e-17 1.080309e-01) (1.006322e-16 -1.573463e-17 3.547080e-04) (0.000000e+00 0.000000e+00 0.000000e+00))
0.071        	((-6.229426e-01 7.760779e-01 -6.479219e-15) (2.049255e-04 2.283566e-03 -5.018404e-15) (0.000000e+00 0.000000e+00 0.000000e+00)) ((2.003073e-15 8.568380e-15 9.985617e-02) (-2.254563e-16 7.032714e-17 3.686042e-04) (0.000000e+00 0.000000e+00 0.000000e+00))
0.072        	((-5.935966e-01 8.286874e-01 -1.248046e-14) (2.062202e-04 2.268492e-03 2.253610e-15) (0.000000e+00 0.000000e+00 0.000000e+00)) ((-5.047121e-16 5.833479e-17 1.030997e-01) (6.457176e-17 -3.416079e-17 3.812660e-04) (0.000000e+00 0.000000e+00 0.000000e+00))
0.073        	((-5.574386e-01 8.365662e-01 -8.075597e-15) (2.121297e-04 2.246364e-03 -3.702236e-15) (0.000000e+00 0.000000e+00 0.000000e+00)) ((2.784310e-15 8.319268e-15 9.999876e-02) (-1.407346e-16 4.179293e-17 3.909052e-04) (0.000000e+00 0.000000e+00 0.000000e+00))
0.074        	((-5.137361e-01 8.723416e-01 -2.146456e-14) (2.206406e-04 2.217643e-03 3.512730e-15) (0.000000e+00 0.000000e+00 0.000000e+00)) ((-9.026110e-16 4.331873e-16 1.013995e-01) (1.097435e-16 -4.607210e-17 3.979386e-04) (0.000000e+00 0.000000e+00 0.000000e+00))
0.075        	((-4.571878e-01 8.997675e-01 -8.528512e-15) (2.350371e-04 2.179849e-03 -3.811425e-15) (0.000000e+00 0.000000e+00 0.000000e+00)) ((3.467629e-15 7.656186e-15 1.023804e-01) (-1.383079e-16 8.391011e-17 4.014296e-04) (0.000000e+00 0.000000e+00 0.000000e+00))
0.076        	((-3.831044e-01 9.520845e-01 -1.856782e-14) (2.545600e-04 2.134665e-03 3.382222e-15) (0.000000e+00 0.000000e+00 0.000000e+00)) ((-8.183383e-16 5.264767e-16 1.081337e-01) (1.042267e-16 -8.769452e-17 4.020001e-04) (0.000000e+00 0.000000e+00 0.000000e+00))
0.077        	((-2.940255e-01 1.021809e+00 -1.363605e-14) (2.767804e-04 2.085074e-03 -2.831130e-15) (0.000000e+00 0.000000e+00 0.000000e+00)) ((3.902589e-15 7.448189e-15 1.175917e-01) (-7.940647e-17 1.679711e-17 4.008521e-04) (0.000000e+00 0.000000e+00 0.000000e+00))
0.078        	((-1.856100e-01 1.089883e+00 -1.774461e-14) (3.035815e-04 2.029208e-03 2.740023e-15) (0.000000e+00 0.000000e+00 0.000000e+00)) ((-7.421528e-16 6.832303e-16 1.285842e-01) (7.412958e-17 -8.181005e-17 3.975685e-04) (0.000000e+00 0.000000e+00 0.000000e+00))
0.079        	((-5.695424e-02 1.159639e+00 -4.822814e-15) (3.352522e-04 1.968530e-03 -3.036495e-15) (0.000000e+00 0.000000e+00 0.000000e+00)) ((4.725958e-15 6.148888e-15 1.419218e-01) (-9.541535e-17 7.820461e-17 3.926366e-04) (0.000000e+00 0.000000e+00 0.000000e+00))
0.08         	((9.847232e-02 1.237953e+00 -1.343317e-14) (3.727460e-04 1.904221e-03 1.422344e-15) (0.000000e+00 0.000000e+00 0.000000e+00)) ((-4.959928e-16 4.581055e-16 1.592744e-01) (2.385944e-17 -1.647462e-17 3.865186e-04) (0.000000e+00 0.000000e+00 0.000000e+00))
0.081        	((2.767773e-01 1.318345e+00 1.311517e-14) (4.151814e-04 1.838094e-03 -1.445825e-15) (0.000000e+00 0.000000e+00 0.000000e+00)) ((5.752292e-16 -6.356565e-16 1.797845e-01) (-2.641039e-17 4.473218e-17 3.800282e-04) (0.000000e+00 0.000000e+00 0.000000e+00))
0.082        	((4.578744e-01 1.370530e+00 -1.153572e-14) (4.610481e-04 1.771858e-03 1.506230e-15) (0.000000e+00 0.000000e+00 0.000000e+00)) ((-2.179836e-16 7.972085e-16 1.982626e-01) (1.438834e-17 -4.095059e-17 3.735306e-04) (0.000000e+00 0.000000e+00 0.000000e+00))
0.083        	((6.623682e-01 1.423435e+00 6.011481e-15) (5.117643e-04 1.705717e-03 -1.463722e-16) (0.000000e+00 0.000000e+00 0.000000e+00)) ((1.990298e-16 -3.363019e-16 2.202917e-01) (1.350705e-17 -3.169291e-17 3.673467e-04) (0.000000e+00 0.000000e+00 0.000000e+00))
0.084        	((8.637966e-01 1.457219e+00 -7.253569e-15) (5.648711e-04 1.643604e-03 2.123106e-16) (0.000000e+00 0.000000e+00 0.000000e+00)) ((-1.554286e-16 3.356020e-16 2.411561e-01) (-1.308198e-17 2.859015e-17 3.625329e-04) (0.000000e+00 0.000000e+00 0.000000e+00))
0.085        	((1.062371e+00 1.462261e+00 2.458288e-15) (6.235778e-04 1.582088e-03 1.109278e-15) (0.000000e+00 0.000000e+00 0.000000e+00)) ((2.148441e-16 -1.895748e-16 2.600142e-01) (4.438316e-17 -6.531907e-17 3.585500e-04) (0.000000e+00 0.000000e+00 0.000000e+00))
0.086        	((1.255390e+00 1.453905e+00 -3.952985e-15) (6.882857e-04 1.523230e-03 -1.087665e-15) (0.000000e+00 0.000000e+00 0.000000e+00)) ((-1.047317e-16 2.225329e-16 2.782329e-01) (-2.916333e-17 9.335810e-17 3.563367e-04) (0.000000e+00 0.000000e+00 0.000000e+00))
0.087        	((1.406491e+00 1.405125e+00 -3.030268e-15) (7.570995e-04 1.465279e-03 2.630175e-15) (0.000000e+00 0.000000e+00 0.000000e+00)) ((2.448976e-16 3.789167e-16 2.890111e-01) (4.801802e-17 -1.724924e-16 3.555472e-04) (0.000000e+00 0.000000e+00 0.000000e+00))
0.088        	((1.567805e+00 1.353881e+00 8.272845e-16) (8.351443e-04 1.406624e-03 -3.019456e-15) (0.000000e+00 0.000000e+00 0.000000e+00)) ((3.528280e-16 2.195246e-16 3.020649e-01) (-6.869329e-17 1.689131e-16 3.569277e-04) (0.000000e+00 0.000000e+00 0.000000e+00))
0.089        	((1.690023e+00 1.279031e+00 -4.410196e-15) (9.167339e-04 1.348228e-03 3.648390e-15) (0.000000e+00 0.000000e+00 0.000000e+00)) ((-9.053567e-18 2.468898e-16 3.094152e-01) (5.599069e-17 -2.119612e-16 3.603206e-04) (0.000000e+00 0.000000e+00 0.000000e+00))
0.09         	((1.796130e+00 1.191370e+00 5.120811e-15) (9.998517e-04 1.290147e-03 -4.074658e-15) (0.000000e+00 0.000000e+00 0.000000e+00)) ((1.958943e-16 -9.866529e-17 3.148157e-01) (-6.828288e-17 2.165128e-16 3.655052e-04) (0.000000e+00 0.000000e+00 0.000000e+00))
0.091        	((1.883755e+00 1.086476e+00 -7.953298e-15) (1.081905e-03 1.228304e-03 5.000469e-15) (0.000000e+00 0.000000e+00 0.000000e+00)) ((-6.535865e-17 3.730400e-16 3.177483e-01) (7.286711e-17 -2.576123e-16 3.710614e-04) (0.000000e+00 0.000000e+00 0.000000e+00))
0.092        	((1.960537e+00 9.726461e-01 9.855755e-15) (1.160281e-03 1.160959e-03 -5.232422e-15) (0.000000e+00 0.000000e+00 0.000000e+00)) ((4.536254e-16 -4.239136e-16 3.198584e-01) (-1.279925e-16 2.463467e-16 3.762468e-04) (0.000000e+00 0.000000e+00 0.000000e+00))
0.093        	((2.021183e+00 8.476860e-01 -1.284831e-14) (1.232770e-03 1.085951e-03 6.304156e-15) (0.000000e+00 0.000000e+00 0.000000e+00)) ((7.729354e-17 6.793869e-16 3.203876e-01) (2.430521e-17 -3.301910e-16 3.804354e-04) (0.000000e+00 0.000000e+00 0.000000e+00))
0.094        	((2.071766e+00 7.155660e-01 1.375147e-14) (1.296279e-03 1.003392e-03 -6.625351e-15) (0.000000e+00 0.000000e+00 0.000000e+00)) ((-4.283305e-17 -6.610541e-16 3.204863e-01) (3.326388e-17 3.467600e-16 3.832524e-04) (0.000000e+00 0.000000e+00 0.000000e+00))
0.095        	((2.110431e+00 5.717125e-01 -1.488628e-14) (1.349757e-03 9.097605e-04 7.448322e-15) (0.000000e+00 0.000000e+00 0.000000e+00)) ((-8.401228e-17 6.678296e-16 3.199238e-01) (1.107511e-17 -3.744736e-16 3.841028e-04) (0.000000e+00 0.000000e+00 0.000000e+00))
0.096        	((2.143903e+00 4.221024e-01 1.765597e-14) (1.391973e-03 8.061578e-04 -7.768559e-15) (0.000000e+00 0.000000e+00 0.000000e+00)) ((2.961154e-17 -8.137802e-16 3.200109e-01) (5.691460e-17 3.932299e-16 3.833392e-04) (0.000000e+00 0.000000e+00 0.000000e+00))
0.097        	((2.156828e+00 2.630235e-01 -2.245522e-14) (1.421152e-03 6.912997e-04 8.666889e-15) (0.000000e+00 0.000000e+00 0.000000e+00)) ((2.840682e-16 1.102039e-15 3.185934e-01) (-1.092362e-16 -4.427507e-16 3.807064e-04) (0.000000e+00 0.000000e+00 0.000000e+00))
0.098        	((2.168340e+00 9.879033e-02 2.709380e-14) (1.437410e-03 5.661599e-04 -9.841548e-15) (0.000000e+00 0.000000e+00 0.000000e+00)) ((-4.496440e-16 -1.312543e-15 3.187365e-01) (2.121618e-16 4.990426e-16 3.766664e-04) (0.000000e+00 0.000000e+00 0.000000e+00))
0.099        	((2.163504e+00 -7.369095e-02 -2.560022e-14) (1.439007e-03 4.317022e-04 9.494612e-15) (0.000000e+00 0.000000e+00 0.000000e+00)) ((2.807962e-16 1.240253e-15 3.184383e-01) (-1.270661e-16 -4.655892e-16 3.710037e-04) (0.000000e+00 0.000000e+00 0.000000e+00))
0.1          	((2.137474e+00 -2.395614e-01 2.521159e-14) (1.427151e-03 2.955573e-04 -9.509300e-15) (0.000000e+00 0.000000e+00 0.000000e+00)) ((-3.108082e-16 -1.124018e-15 3.167793e-01) (2.062077e-16 4.431665e-16 3.650134e-04) (0.000000e+00 0.000000e+00 0.000000e+00))
0.101        	((2.098940e+00 -4.124894e-01 -2.882942e-14) (1.403549e-03 1.567787e-04 1.018071e-14) (0.000000e+00 0.000000e+00 0.000000e+00)) ((5.298540e-16 1.371953e-15 3.155402e-01) (-2.251971e-16 -4.566234e-16 3.590509e-04) (0.000000e+00 0.000000e+00 0.000000e+00))
0.102        	((2.033541e+00 -5.701703e-01 2.741041e-14) (1.372108e-03 2.076703e-05 -9.427038e-15) (0.000000e+00 0.000000e+00 0.000000e+00)) ((-7.572976e-16 -1.266244e-15 3.118263e-01) (2.672652e-16 4.075952e-16 3.546892e-04) (0.000000e+00 0.000000e+00 0.000000e+00))
0.103        	((1.943371e+00 -7.203576e-01 -2.936089e-14) (1.337261e-03 -1.180978e-04 1.047863e-14) (0.000000e+00 0.000000e+00 0.000000e+00)) ((1.031659e-15 1.288203e-15 3.062777e-01) (-3.431837e-16 -4.290347e-16 3.528439e-04) (0.000000e+00 0.000000e+00 0.000000e+00))
0.104        	((1.848634e+00 -8.565464e-01 3.063945e-14) (1.305425e-03 -2.585312e-04 -1.063757e-14) (0.000000e+00 0.000000e+00 0.000000e+00)) ((-1.146496e-15 -1.234127e-15 3.012296e-01) (3.665001e-16 4.046882e-16 3.552337e-04) (0.000000e+00 0.000000e+00 0.000000e+00))
0.105        	((1.710425e+00 -9.668064e-01 -2.683785e-14) (1.275779e-03 -4.013110e-04 1.024882e-14) (0.000000e+00 0.000000e+00 0.000000e+00)) ((9.774433e-16 1.085572e-15 2.905543e-01) (-3.586597e-16 -3.692021e-16 3.611123e-04) (0.000000e+00 0.000000e+00 0.000000e+00))
0.106        	((1.590560e+00 -1.048244e+00 2.989591e-14) (1.259476e-03 -5.386271e-04 -1.068753e-14) (0.000000e+00 0.000000e+00 0.000000e+00)) ((-1.053693e-15 -1.085628e-15 2.815411e-01) (3.994399e-16 3.509065e-16 3.735318e-04) (0.000000e+00 0.000000e+00 0.000000e+00))
0.107        	((1.419088e+00 -1.105404e+00 -3.209226e-14) (1.244548e-03 -6.853554e-04 1.145135e-14) (0.000000e+00 0.000000e+00 0.000000e+00)) ((1.375295e-15 1.116456e-15 2.657823e-01) (-4.717535e-16 -3.469227e-16 3.893410e-04) (0.000000e+00 0.000000e+00 0.000000e+00))
0.108        	((1.268943e+00 -1.120701e+00 3.224810e-14) (1.242699e-03 -8.326742e-04 -1.278643e-14) (0.000000e+00 0.000000e+00 0.000000e+00)) ((-1.292016e-15 -1.038726e-15 2.497632e-01) (5.210392e-16 3.569468e-16 4.115413e-04) (0.000000e+00 0.000000e+00 0.000000e+00))
0.109        	((1.100127e+00 -1.109392e+00 -3.181058e-14) (1.243488e-03 -9.905277e-04 1.379824e-14) (0.000000e+00 0.000000e+00 0.000000e+00)) ((1.633680e-15 7.982708e-16 2.301073e-01) (-6.219195e-16 -3.323750e-16 4.372586e-04) (0.000000e+00 0.000000e+00 0.000000e+00))
0.11         	((9.402375e-01 -1.053760e+00 2.086276e-14) (1.246662e-03 -1.155655e-03 -1.092731e-14) (0.000000e+00 0.000000e+00 0.000000e+00)) ((-1.091871e-15 -4.871007e-16 2.072728e-01) (4.963193e-16 2.238763e-16 4.661766e-04) (0.000000e+00 0.000000e+00 0.000000e+00))
0.111        	((7.867201e-01 -9.712056e-01 -1.793816e-14) (1.244159e-03 -1.332497e-03 1.100926e-14) (0.000000e+00 0.000000e+00 0.000000e+00)) ((9.482198e-16 3.916013e-16 1.824845e-01) (-4.811856e-16 -1.980968e-16 4.968334e-04) (0.000000e+00 0.000000e+00 0.000000e+00))