# Residuals  
# Time       	p            	Ux           	Uy           
1.19904e-05  	1.000000e+00	N/A
2.63651e-05  	7.321590e-03	N/A
4.33981e-05  	4.088400e-01	N/A
6.31455e-05  	2.994430e-01	N/A
8.56882e-05  	2.945870e-01	N/A
0.000111151  	3.123040e-01	N/A
0.000139575  	3.422570e-01	N/A
0.000170143  	3.766300e-01	N/A
0.000201304  	4.108210e-01	N/A
0.000233083  	4.254920e-01	N/A
0.000265292  	4.369480e-01	N/A
0.000297945  	4.416570e-01	N/A
0.000331293  	4.433100e-01	N/A
0.000365124  	4.479430e-01	N/A
0.000399457  	4.499870e-01	N/A
0.000434047  	4.534780e-01	N/A
0.00046917   	4.519390e-01	N/A
0.000504567  	4.542810e-01	N/A
0.00054053   	4.509160e-01	N/A
0.000576786  	4.519630e-01	N/A
0.000613646  	4.487350e-01	N/A
0.000650819  	4.506010e-01	N/A
0.000688312  	4.498990e-01	N/A
0.000726134  	4.495010e-01	N/A
0.000764293  	4.487240e-01	N/A
0.0008028    	4.484400e-01	N/A
0.000841663  	4.447400e-01	N/A
0.000880892  	4.412430e-01	N/A
0.000920499  	4.381330e-01	N/A
0.000960494  	4.351600e-01	N/A
0.00100089   	4.313870e-01	N/A
0.0010417    	4.268170e-01	N/A
0.00108293   	4.218840e-01	N/A
0.0011246    	4.173040e-01	N/A
0.00116672   	4.129710e-01	N/A
0.00120932   	4.083970e-01	N/A
0.00125191   	4.073650e-01	N/A
0.00129499   	4.009740e-01	N/A
0.00133858   	3.968840e-01	N/A
0.00138269   	3.922900e-01	N/A
0.0014268    	3.909140e-01	N/A
0.00147147   	3.848530e-01	N/A
0.00151671   	3.796310e-01	N/A
0.00156254   	3.751160e-01	N/A
0.00160837   	3.747500e-01	N/A
0.00165483   	3.685830e-01	N/A
0.00170195   	3.644910e-01	N/A
0.00174906   	3.638990e-01	N/A
0.00179687   	3.569610e-01	N/A
0.00184468   	3.560880e-01	N/A
0.00189322   	3.483830e-01	N/A
0.00194177   	3.483570e-01	N/A
0.00199109   	3.409490e-01	N/A
0.00204042   	3.414020e-01	N/A
0.00209058   	3.344610e-01	N/A
0.00214074   	3.350740e-01	N/A
0.0021918    	3.277580e-01	N/A
0.00224286   	3.283790e-01	N/A
0.00229488   	3.215540e-01	N/A
0.0023469    	3.226670e-01	N/A
0.00239892   	3.214000e-01	N/A
0.00245201   	3.148350e-01	N/A
0.00250509   	3.159420e-01	N/A
0.00255817   	3.141190e-01	N/A
0.00261244   	3.075530e-01	N/A
0.0026667    	3.095070e-01	N/A
0.00272096   	3.083460e-01	N/A
0.00277522   	3.071670e-01	N/A
0.00283084   	2.994140e-01	N/A
0.00288646   	3.016760e-01	N/A
0.00294208   	2.996390e-01	N/A
0.0029977    	2.983280e-01	N/A
0.00305332   	2.966180e-01	N/A
0.00311058   	2.877780e-01	N/A
0.00316783   	2.908340e-01	N/A
0.00322509   	2.898250e-01	N/A
0.00328234   	2.890500e-01	N/A
0.0033396    	2.879680e-01	N/A
0.00339685   	2.866760e-01	N/A
0.00345411   	2.849640e-01	N/A
0.00351357   	2.731090e-01	N/A
0.00357302   	2.762640e-01	N/A
0.00363248   	2.747280e-01	N/A
0.00369194   	2.732130e-01	N/A
0.0037514    	2.709430e-01	N/A
0.00381085   	2.689890e-01	N/A
0.00387031   	2.668050e-01	N/A
0.00392977   	2.648530e-01	N/A
0.00398922   	2.623490e-01	N/A
0.00404868   	2.605420e-01	N/A
0.00410814   	2.584960e-01	N/A
0.0041676    	2.568200e-01	N/A
0.00422705   	2.549810e-01	N/A
0.00428651   	2.533640e-01	N/A
0.00434597   	2.520190e-01	N/A
0.00440543   	2.513700e-01	N/A
0.00446488   	2.500270e-01	N/A
0.00452434   	2.488940e-01	N/A
0.0045838    	2.475330e-01	N/A
0.00464326   	2.459250e-01	N/A
0.00470271   	2.453730e-01	N/A
0.00476217   	2.448030e-01	N/A
0.00482163   	2.439890e-01	N/A
0.00488109   	2.432450e-01	N/A
0.00494054   	2.423070e-01	N/A
0.005        	2.413490e-01	N/A
0.00506579   	2.164040e-01	N/A
0.00513158   	2.278450e-01	N/A
0.00519827   	2.231230e-01	N/A
0.00526496   	2.233900e-01	N/A
0.00533165   	2.226280e-01	N/A
0.00539834   	2.221240e-01	N/A
0.00546503   	2.216170e-01	N/A
0.00553272   	2.171460e-01	N/A
0.0056004    	2.181170e-01	N/A
0.00566809   	2.176100e-01	N/A
0.00573578   	2.167500e-01	N/A
0.00580346   	2.158180e-01	N/A
0.00587115   	2.155220e-01	N/A
0.00593884   	2.149720e-01	N/A
0.00600652   	2.141300e-01	N/A
0.00607421   	2.137220e-01	N/A
0.00614189   	2.129340e-01	N/A
0.00620958   	2.117160e-01	N/A
0.00627727   	2.114180e-01	N/A
0.00634495   	2.107960e-01	N/A
0.00641391   	2.060730e-01	N/A
0.00648288   	2.080440e-01	N/A
0.00655184   	2.071180e-01	N/A
0.0066208    	2.065730e-01	N/A
0.00668977   	2.057360e-01	N/A
0.00675873   	2.050260e-01	N/A
0.00682769   	2.045090e-01	N/A
0.00689666   	2.037950e-01	N/A
0.00696562   	2.028490e-01	N/A
0.00703458   	2.022810e-01	N/A
0.00710355   	2.018940e-01	N/A
0.00717251   	2.015280e-01	N/A
0.00724147   	2.012800e-01	N/A
0.00731044   	2.006220e-01	N/A
0.0073794    	2.003210e-01	N/A
0.00744836   	1.997080e-01	N/A
0.00751733   	1.989740e-01	N/A
0.00758629   	1.986180e-01	N/A
0.00765525   	1.980570e-01	N/A
0.00772422   	1.972600e-01	N/A
0.00779318   	1.959670e-01	N/A
0.00786214   	1.959540e-01	N/A
0.0079311    	1.955780e-01	N/A
0.00800007   	1.956020e-01	N/A
0.00806903   	1.947500e-01	N/A
0.00813799   	1.945780e-01	N/A
0.00820696   	1.943860e-01	N/A
0.00827592   	1.942150e-01	N/A
0.00834488   	1.937550e-01	N/A
0.00841385   	1.935900e-01	N/A
0.00848281   	1.933060e-01	N/A
0.00855177   	1.931090e-01	N/A
0.00862074   	1.928480e-01	N/A
0.0086897    	1.925790e-01	N/A
0.00875866   	1.922260e-01	N/A
0.00882763   	1.918160e-01	N/A
0.00889659   	1.918150e-01	N/A
0.00896555   	1.920080e-01	N/A
0.00903452   	1.919300e-01	N/A
0.00910348   	1.922830e-01	N/A
0.00917244   	1.923580e-01	N/A
0.00924141   	1.923110e-01	N/A
0.00931037   	1.922960e-01	N/A
0.00937933   	1.923780e-01	N/A
0.00944829   	1.924510e-01	N/A
0.00951726   	1.922110e-01	N/A
0.00958622   	1.919270e-01	N/A
0.00965518   	1.919190e-01	N/A
0.00972415   	1.921170e-01	N/A
0.00979311   	1.916840e-01	N/A
0.00986207   	1.918840e-01	N/A
0.00993104   	1.917410e-01	N/A
0.01         	1.917150e-01	N/A
0.0100735    	1.776020e-01	N/A
0.0101471    	1.853650e-01	N/A
0.0102206    	1.846990e-01	N/A
0.0102941    	1.842540e-01	N/A
0.0103676    	1.841840e-01	N/A
0.0104412    	1.838710e-01	N/A
0.0105147    	1.838450e-01	N/A
0.0105882    	1.836430e-01	N/A
0.010663     	1.797440e-01	N/A
0.0107378    	1.817910e-01	N/A
0.0108126    	1.811440e-01	N/A
0.0108873    	1.809560e-01	N/A
0.0109621    	1.809680e-01	N/A
0.0110369    	1.807370e-01	N/A
0.0111117    	1.805640e-01	N/A
0.0111864    	1.807090e-01	N/A
0.0112612    	1.804260e-01	N/A
0.011336     	1.801010e-01	N/A
0.0114108    	1.800470e-01	N/A
0.0114855    	1.802590e-01	N/A
0.0115603    	1.799310e-01	N/A
0.0116368    	1.745910e-01	N/A
0.0117132    	1.771050e-01	N/A
0.0117896    	1.769840e-01	N/A
0.0118661    	1.768450e-01	N/A
0.0119425    	1.768610e-01	N/A
0.0120189    	1.763640e-01	N/A
0.0120954    	1.762810e-01	N/A
0.0121718    	1.761920e-01	N/A
0.0122483    	1.763240e-01	N/A
0.0123247    	1.763890e-01	N/A
0.0124011    	1.760300e-01	N/A
0.0124776    	1.759790e-01	N/A
0.012554     	1.759170e-01	N/A
0.0126304    	1.759470e-01	N/A
0.0127069    	1.755440e-01	N/A
0.0127833    	1.755040e-01	N/A
0.0128598    	1.749340e-01	N/A
0.0129362    	1.752180e-01	N/A
0.0130126    	1.752850e-01	N/A
0.0130891    	1.751300e-01	N/A
0.0131655    	1.751890e-01	N/A
0.0132419    	1.754410e-01	N/A
0.0133184    	1.753570e-01	N/A
0.0133948    	1.753240e-01	N/A
0.0134713    	1.754130e-01	N/A
0.0135477    	1.756000e-01	N/A
0.0136241    	1.757130e-01	N/A
0.0137006    	1.758520e-01	N/A
0.013777     	1.758230e-01	N/A
0.0138534    	1.757080e-01	N/A
0.0139299    	1.758830e-01	N/A
0.0140063    	1.757850e-01	N/A
0.0140828    	1.760910e-01	N/A
0.0141592    	1.755780e-01	N/A
0.0142356    	1.755420e-01	N/A
0.0143121    	1.754480e-01	N/A
0.0143885    	1.753900e-01	N/A
0.0144649    	1.754390e-01	N/A
0.0145414    	1.750570e-01	N/A
0.0146178    	1.745210e-01	N/A
0.0146943    	1.745590e-01	N/A
0.0147707    	1.744600e-01	N/A
0.0148471    	1.745520e-01	N/A
0.0149236    	1.746230e-01	N/A
0.015        	1.743620e-01	N/A
0.015082     	1.598120e-01	N/A
0.0151639    	1.676450e-01	N/A
0.0152459    	1.668570e-01	N/A
0.0153279    	1.667820e-01	N/A
0.0154098    	1.667600e-01	N/A
0.0154918    	1.665310e-01	N/A
0.0155738    	1.664660e-01	N/A
0.0156573    	1.624280e-01	N/A
0.0157408    	1.645780e-01	N/A
0.0158243    	1.641850e-01	N/A
0.0159078    	1.637800e-01	N/A
0.0159913    	1.640190e-01	N/A
0.0160749    	1.636310e-01	N/A
0.0161584    	1.637870e-01	N/A
0.0162419    	1.634450e-01	N/A
0.0163254    	1.630240e-01	N/A
0.0164089    	1.627170e-01	N/A
0.0164924    	1.628540e-01	N/A
0.0165759    	1.627570e-01	N/A
0.0166594    	1.630540e-01	N/A
0.016743     	1.630820e-01	N/A
0.0168287    	1.577260e-01	N/A
0.0169144    	1.605650e-01	N/A
0.0170001    	1.605510e-01	N/A
0.0170858    	1.598620e-01	N/A
0.0171715    	1.598030e-01	N/A
0.0172572    	1.598090e-01	N/A
0.0173429    	1.601840e-01	N/A
0.0174287    	1.600280e-01	N/A
0.0175144    	1.597960e-01	N/A
0.0176001    	1.594240e-01	N/A
0.0176858    	1.597680e-01	N/A
0.0177715    	1.594800e-01	N/A
0.0178572    	1.597590e-01	N/A
0.0179429    	1.598010e-01	N/A
0.0180286    	1.597060e-01	N/A
0.0181143    	1.593750e-01	N/A
0.0182001    	1.596780e-01	N/A
0.0182858    	1.593150e-01	N/A
0.0183715    	1.590810e-01	N/A
0.0184572    	1.592260e-01	N/A
0.0185429    	1.593570e-01	N/A
0.0186286    	1.595560e-01	N/A
0.0187143    	1.597830e-01	N/A
0.0188       	1.596940e-01	N/A
0.0188858    	1.591450e-01	N/A
0.0189715    	1.596630e-01	N/A
0.0190572    	1.597210e-01	N/A
0.0191429    	1.593140e-01	N/A
0.0192286    	1.598650e-01	N/A
0.0193143    	1.596930e-01	N/A
0.0194       	1.596340e-01	N/A
0.019475     	1.873520e-01	N/A
0.01955      	1.717010e-01	N/A
0.019625     	1.731380e-01	N/A
0.0197       	1.733520e-01	N/A
0.019775     	1.735180e-01	N/A
0.01985      	1.736370e-01	N/A
0.019925     	1.735980e-01	N/A
0.02         	1.736360e-01	N/A
0.020082     	1.549650e-01	N/A
0.0201639    	1.646540e-01	N/A
0.0202459    	1.638680e-01	N/A
0.0203279    	1.633030e-01	N/A
0.0204098    	1.624420e-01	N/A
0.0204904    	1.659130e-01	N/A
0.0205709    	1.641110e-01	N/A
0.0206514    	1.644150e-01	N/A
0.020732     	1.644980e-01	N/A
0.0208125    	1.643940e-01	N/A
0.020893     	1.643600e-01	N/A
0.020972     	1.682870e-01	N/A
0.021051     	1.663810e-01	N/A
0.02113      	1.663620e-01	N/A
0.0212089    	1.661710e-01	N/A
0.0212879    	1.663450e-01	N/A
0.0213652    	1.707620e-01	N/A
0.0214426    	1.687030e-01	N/A
0.0215199    	1.694600e-01	N/A
0.0215973    	1.689790e-01	N/A
0.0216746    	1.689580e-01	N/A
0.0217519    	1.691860e-01	N/A
0.0218293    	1.693000e-01	N/A
0.0219048    	1.744980e-01	N/A
0.0219802    	1.713930e-01	N/A
0.0220557    	1.716830e-01	N/A
0.0221312    	1.715810e-01	N/A
0.0222067    	1.714570e-01	N/A
0.0222822    	1.710890e-01	N/A
0.0223577    	1.710390e-01	N/A
0.0224311    	1.764710e-01	N/A
0.0225045    	1.732110e-01	N/A
0.0225779    	1.735200e-01	N/A
0.0226513    	1.734380e-01	N/A
0.0227247    	1.734120e-01	N/A
0.0227981    	1.732460e-01	N/A
0.0228715    	1.723080e-01	N/A
0.0229449    	1.725530e-01	N/A
0.0230183    	1.722210e-01	N/A
0.0230891    	1.799890e-01	N/A
0.0231598    	1.759230e-01	N/A
0.0232306    	1.757160e-01	N/A
0.0233014    	1.756380e-01	N/A
0.0233722    	1.751140e-01	N/A
0.0234429    	1.748780e-01	N/A
0.0235137    	1.750090e-01	N/A
0.0235845    	1.748350e-01	N/A
0.0236553    	1.747050e-01	N/A
0.023726     	1.746000e-01	N/A
0.0237968    	1.740430e-01	N/A
0.0238676    	1.738550e-01	N/A
0.0239384    	1.737840e-01	N/A
0.0240091    	1.736940e-01	N/A
0.0240799    	1.725370e-01	N/A
0.0241507    	1.728730e-01	N/A
0.024216     	1.898280e-01	N/A
0.0242814    	1.817490e-01	N/A
0.0243467    	1.821930e-01	N/A
0.024412     	1.821200e-01	N/A
0.0244774    	1.822960e-01	N/A
0.0245427    	1.822230e-01	N/A
0.024608     	1.821060e-01	N/A
0.0246733    	1.820860e-01	N/A
0.0247387    	1.817790e-01	N/A
0.024804     	1.822780e-01	N/A
0.0248693    	1.818510e-01	N/A
0.0249347    	1.818290e-01	N/A
0.025        	1.816870e-01	N/A
0.0250685    	1.717670e-01	N/A
0.025137     	1.766750e-01	N/A
0.0252055    	1.765350e-01	N/A
0.025274     	1.765220e-01	N/A
0.0253425    	1.762220e-01	N/A
0.025411     	1.769870e-01	N/A
0.0254795    	1.760550e-01	N/A
0.0255479    	1.759310e-01	N/A
0.0256164    	1.757050e-01	N/A
0.0256849    	1.758470e-01	N/A
0.0257524    	1.790960e-01	N/A
0.0258198    	1.774300e-01	N/A
0.0258872    	1.773510e-01	N/A
0.0259546    	1.773990e-01	N/A
0.026022     	1.775620e-01	N/A
0.0260895    	1.773510e-01	N/A
0.0261569    	1.775430e-01	N/A
0.0262243    	1.772020e-01	N/A
0.0262917    	1.774100e-01	N/A
0.0263592    	1.772930e-01	N/A
0.0264266    	1.775480e-01	N/A
0.026494     	1.771380e-01	N/A
0.0265614    	1.773700e-01	N/A
0.0266289    	1.781770e-01	N/A
0.0266963    	1.777730e-01	N/A
0.0267637    	1.780410e-01	N/A
0.0268311    	1.783230e-01	N/A
0.0268985    	1.783960e-01	N/A
0.026966     	1.787640e-01	N/A
0.0270334    	1.786230e-01	N/A
0.0271008    	1.789060e-01	N/A
0.0271682    	1.791990e-01	N/A
0.0272357    	1.790020e-01	N/A
0.0273031    	1.788610e-01	N/A
0.0273705    	1.788780e-01	N/A
0.0274379    	1.793210e-01	N/A
0.0275054    	1.795500e-01	N/A
0.0275728    	1.791900e-01	N/A
0.0276402    	1.792590e-01	N/A
0.0277076    	1.799370e-01	N/A
0.027775     	1.799620e-01	N/A
0.0278425    	1.794890e-01	N/A
0.0279099    	1.799150e-01	N/A
0.0279773    	1.796240e-01	N/A
0.0280447    	1.794900e-01	N/A
0.0281122    	1.795310e-01	N/A
0.0281796    	1.796080e-01	N/A
0.028247     	1.796970e-01	N/A
0.0283144    	1.792180e-01	N/A
0.0283818    	1.794870e-01	N/A
0.0284493    	1.794100e-01	N/A
0.0285167    	1.795910e-01	N/A
0.0285841    	1.793410e-01	N/A
0.0286515    	1.793740e-01	N/A
0.028719     	1.795010e-01	N/A
0.0287864    	1.793580e-01	N/A
0.0288538    	1.795560e-01	N/A
0.0289212    	1.796500e-01	N/A
0.0289887    	1.801690e-01	N/A
0.0290561    	1.799510e-01	N/A
0.0291235    	1.800930e-01	N/A
0.0291909    	1.806860e-01	N/A
0.0292583    	1.802750e-01	N/A
0.0293258    	1.804720e-01	N/A
0.0293932    	1.804470e-01	N/A
0.0294606    	1.802040e-01	N/A
0.029528     	1.802970e-01	N/A
0.0295955    	1.809180e-01	N/A
0.0296629    	1.813370e-01	N/A
0.0297303    	1.810770e-01	N/A
0.0297977    	1.813970e-01	N/A
0.0298652    	1.811490e-01	N/A
0.0299326    	1.811740e-01	N/A
0.03         	1.809500e-01	N/A
0.0300704    	1.718750e-01	N/A
0.0301408    	1.768180e-01	N/A
0.0302113    	1.761980e-01	N/A
0.0302817    	1.759040e-01	N/A
0.0303521    	1.767310e-01	N/A
0.0304225    	1.763870e-01	N/A
0.030493     	1.761200e-01	N/A
0.0305634    	1.759810e-01	N/A
0.0306338    	1.755890e-01	N/A
0.0307042    	1.757060e-01	N/A
0.0307746    	1.760620e-01	N/A
0.0308463    	1.726270e-01	N/A
0.0309179    	1.741460e-01	N/A
0.0309895    	1.740780e-01	N/A
0.0310611    	1.743200e-01	N/A
0.0311327    	1.737270e-01	N/A
0.0312043    	1.739570e-01	N/A
0.031276     	1.744090e-01	N/A
0.0313476    	1.741990e-01	N/A
0.0314192    	1.742190e-01	N/A
0.0314908    	1.744980e-01	N/A
0.0315639    	1.704920e-01	N/A
0.031637     	1.728050e-01	N/A
0.0317101    	1.728840e-01	N/A
0.0317832    	1.726220e-01	N/A
0.0318563    	1.723380e-01	N/A
0.0319295    	1.722950e-01	N/A
0.0320026    	1.721660e-01	N/A
0.0320757    	1.718890e-01	N/A
0.0321488    	1.724390e-01	N/A
0.0322219    	1.727420e-01	N/A
0.032295     	1.726750e-01	N/A
0.0323681    	1.731480e-01	N/A
0.0324433    	1.671020e-01	N/A
0.0325185    	1.693470e-01	N/A
0.0325937    	1.702740e-01	N/A
0.0326689    	1.702530e-01	N/A
0.0327441    	1.703780e-01	N/A
0.0328193    	1.701600e-01	N/A
0.0328945    	1.699510e-01	N/A
0.0329697    	1.701410e-01	N/A
0.0330449    	1.703390e-01	N/A
0.0331201    	1.705980e-01	N/A
0.0331953    	1.704430e-01	N/A
0.0332705    	1.701030e-01	N/A
0.0333457    	1.702930e-01	N/A
0.0334209    	1.703720e-01	N/A
0.0334961    	1.700760e-01	N/A
0.0335713    	1.705820e-01	N/A
0.0336465    	1.703060e-01	N/A
0.0337217    	1.706660e-01	N/A
0.0337968    	1.709220e-01	N/A
0.033872     	1.709980e-01	N/A
0.0339472    	1.708390e-01	N/A
0.0340224    	1.708860e-01	N/A
0.0340976    	1.707320e-01	N/A
0.0341728    	1.709400e-01	N/A
0.034248     	1.707710e-01	N/A
0.0343232    	1.710530e-01	N/A
0.0343984    	1.714140e-01	N/A
0.0344736    	1.709760e-01	N/A
0.0345488    	1.714180e-01	N/A
0.034624     	1.713290e-01	N/A
0.0346992    	1.711580e-01	N/A
0.0347744    	1.715870e-01	N/A
0.0348496    	1.709240e-01	N/A
0.0349248    	1.713340e-01	N/A
0.035        	1.711440e-01	N/A
0.035082     	1.542880e-01	N/A
0.0351653    	1.590350e-01	N/A
0.0352487    	1.600900e-01	N/A
0.035332     	1.598450e-01	N/A
0.0354154    	1.599540e-01	N/A
0.0355003    	1.563500e-01	N/A
0.0355852    	1.577020e-01	N/A
0.0356701    	1.575170e-01	N/A
0.035755     	1.585230e-01	N/A
0.0358416    	1.548250e-01	N/A
0.0359283    	1.563710e-01	N/A
0.0360149    	1.567380e-01	N/A
0.0361015    	1.563620e-01	N/A
0.0361882    	1.568050e-01	N/A
0.0362748    	1.568750e-01	N/A
0.0363614    	1.558100e-01	N/A
0.0364481    	1.563610e-01	N/A
0.0365347    	1.569130e-01	N/A
0.0366192    	1.613680e-01	N/A
0.0367037    	1.590270e-01	N/A
0.0367882    	1.593080e-01	N/A
0.0368728    	1.590730e-01	N/A
0.0369573    	1.594620e-01	N/A
0.0370418    	1.597550e-01	N/A
0.037124     	1.654950e-01	N/A
0.0372062    	1.624180e-01	N/A
0.0372883    	1.628040e-01	N/A
0.0373705    	1.627910e-01	N/A
0.0374527    	1.628670e-01	N/A
0.0375348    	1.631500e-01	N/A
0.037617     	1.628130e-01	N/A
0.0376964    	1.693330e-01	N/A
0.0377759    	1.666950e-01	N/A
0.0378553    	1.671230e-01	N/A
0.0379347    	1.659970e-01	N/A
0.0380142    	1.660730e-01	N/A
0.0380936    	1.663320e-01	N/A
0.038173     	1.662750e-01	N/A
0.0382525    	1.666070e-01	N/A
0.0383285    	1.750960e-01	N/A
0.0384044    	1.705160e-01	N/A
0.0384804    	1.714110e-01	N/A
0.0385564    	1.714060e-01	N/A
0.0386324    	1.711090e-01	N/A
0.0387084    	1.715260e-01	N/A
0.0387843    	1.710260e-01	N/A
0.0388603    	1.711190e-01	N/A
0.0389363    	1.710150e-01	N/A
0.0390123    	1.712550e-01	N/A
0.0390882    	1.713420e-01	N/A
0.0391642    	1.713540e-01	N/A
0.0392402    	1.712520e-01	N/A
0.0393162    	1.713770e-01	N/A
0.0393846    	1.936720e-01	N/A
0.0394529    	1.826040e-01	N/A
0.0395213    	1.833340e-01	N/A
0.0395897    	1.838340e-01	N/A
0.0396581    	1.838980e-01	N/A
0.0397265    	1.837980e-01	N/A
0.0397949    	1.840690e-01	N/A
0.0398632    	1.841290e-01	N/A
0.0399316    	1.841100e-01	N/A
0.04         	1.840310e-01	N/A
0.0400735    	1.691940e-01	N/A
0.040146     	1.791800e-01	N/A
0.0402184    	1.773070e-01	N/A
0.0402909    	1.775890e-01	N/A
0.0403633    	1.773760e-01	N/A
0.0404358    	1.775310e-01	N/A
0.0405082    	1.770690e-01	N/A
0.0405795    	1.801190e-01	N/A
0.0406508    	1.788540e-01	N/A
0.0407221    	1.785160e-01	N/A
0.0407934    	1.787240e-01	N/A
0.0408647    	1.787160e-01	N/A
0.040936     	1.786820e-01	N/A
0.0410073    	1.785110e-01	N/A
0.0410786    	1.786030e-01	N/A
0.0411486    	1.826180e-01	N/A
0.0412187    	1.808240e-01	N/A
0.0412887    	1.815520e-01	N/A
0.0413587    	1.814750e-01	N/A
0.0414287    	1.815840e-01	N/A
0.0414988    	1.818060e-01	N/A
0.0415688    	1.811500e-01	N/A
0.0416388    	1.816650e-01	N/A
0.0417088    	1.817150e-01	N/A
0.0417774    	1.870840e-01	N/A
0.041846     	1.840100e-01	N/A
0.0419145    	1.843310e-01	N/A
0.0419831    	1.841080e-01	N/A
0.0420517    	1.842570e-01	N/A
0.0421202    	1.843490e-01	N/A
0.0421888    	1.842040e-01	N/A
0.0422574    	1.841270e-01	N/A
0.0423259    	1.841800e-01	N/A
0.0423945    	1.851490e-01	N/A
0.0424631    	1.849860e-01	N/A
0.0425316    	1.846660e-01	N/A
0.0426002    	1.841680e-01	N/A
0.0426668    	1.901730e-01	N/A
0.0427335    	1.875440e-01	N/A
0.0428002    	1.872480e-01	N/A
0.0428668    	1.875200e-01	N/A
0.0429335    	1.876590e-01	N/A
0.0430002    	1.880550e-01	N/A
0.0430668    	1.881690e-01	N/A
0.0431335    	1.886020e-01	N/A
0.0432001    	1.879700e-01	N/A
0.0432668    	1.878460e-01	N/A
0.0433335    	1.883090e-01	N/A
0.0434001    	1.877380e-01	N/A
0.0434668    	1.877150e-01	N/A
0.0435334    	1.879250e-01	N/A
0.0436001    	1.883810e-01	N/A
0.0436668    	1.875680e-01	N/A
0.0437334    	1.873020e-01	N/A
0.0438001    	1.873870e-01	N/A
0.0438668    	1.878630e-01	N/A
0.0439334    	1.878590e-01	N/A
0.0440001    	1.884220e-01	N/A
0.0440667    	1.881870e-01	N/A
0.0441334    	1.880450e-01	N/A
0.0442001    	1.886030e-01	N/A
0.0442667    	1.878080e-01	N/A
0.0443334    	1.880650e-01	N/A
0.0444       	1.882920e-01	N/A
0.0444667    	1.880880e-01	N/A
0.0445334    	1.881130e-01	N/A
0.0446       	1.879200e-01	N/A
0.0446667    	1.882530e-01	N/A
0.0447334    	1.888800e-01	N/A
0.0448       	1.884330e-01	N/A
0.0448667    	1.886590e-01	N/A
0.0449333    	1.889890e-01	N/A
0.045        	1.896930e-01	N/A
0.0450667    	1.904640e-01	N/A
0.0451333    	1.885270e-01	N/A
0.0452       	1.892350e-01	N/A
0.0452667    	1.890660e-01	N/A
0.0453333    	1.890950e-01	N/A
0.0454       	1.887460e-01	N/A
0.0454667    	1.891570e-01	N/A
0.0455333    	1.894760e-01	N/A
0.0456       	1.897750e-01	N/A
0.0456667    	1.891740e-01	N/A
0.0457333    	1.892850e-01	N/A
0.0458       	1.895730e-01	N/A
0.0458667    	1.890260e-01	N/A
0.0459333    	1.899110e-01	N/A
0.046        	1.895440e-01	N/A
0.0460667    	1.895120e-01	N/A
0.0461333    	1.894310e-01	N/A
0.0462       	1.893230e-01	N/A
0.0462667    	1.896900e-01	N/A
0.0463333    	1.895830e-01	N/A
0.0464       	1.897010e-01	N/A
0.0464667    	1.904320e-01	N/A
0.0465346    	1.864130e-01	N/A
0.0466026    	1.878580e-01	N/A
0.0466705    	1.880630e-01	N/A
0.0467385    	1.883490e-01	N/A
0.0468064    	1.886060e-01	N/A
0.0468744    	1.887220e-01	N/A
0.0469423    	1.882350e-01	N/A
0.0470103    	1.884660e-01	N/A
0.0470782    	1.884870e-01	N/A
0.0471462    	1.884120e-01	N/A
0.0472141    	1.881830e-01	N/A
0.0472821    	1.883140e-01	N/A
0.04735      	1.886230e-01	N/A
0.0474179    	1.883170e-01	N/A
0.0474859    	1.876850e-01	N/A
0.0475538    	1.880680e-01	N/A
0.0476218    	1.884240e-01	N/A
0.0476897    	1.880230e-01	N/A
0.0477577    	1.879410e-01	N/A
0.0478256    	1.876620e-01	N/A
0.0478936    	1.882660e-01	N/A
0.0479615    	1.882880e-01	N/A
0.0480295    	1.885700e-01	N/A
0.0480974    	1.884980e-01	N/A
0.0481654    	1.885810e-01	N/A
0.0482359    	1.804930e-01	N/A
0.0483065    	1.844520e-01	N/A
0.0483771    	1.845500e-01	N/A
0.0484476    	1.846580e-01	N/A
0.0485182    	1.841630e-01	N/A
0.0485888    	1.842790e-01	N/A
0.0486593    	1.845870e-01	N/A
0.0487299    	1.844850e-01	N/A
0.0488004    	1.843570e-01	N/A
0.048871     	1.841060e-01	N/A
0.0489416    	1.837370e-01	N/A
0.0490121    	1.844170e-01	N/A
0.0490827    	1.852550e-01	N/A
0.0491533    	1.847260e-01	N/A
0.0492238    	1.848920e-01	N/A
0.0492944    	1.847310e-01	N/A
0.0493649    	1.847950e-01	N/A
0.0494355    	1.846970e-01	N/A
0.0495061    	1.847930e-01	N/A
0.0495766    	1.852700e-01	N/A
0.0496472    	1.854010e-01	N/A
0.0497178    	1.851250e-01	N/A
0.0497883    	1.851960e-01	N/A
0.0498589    	1.855330e-01	N/A
0.0499294    	1.856700e-01	N/A
0.05         	1.851200e-01	N/A
0.0500746    	1.740300e-01	N/A
0.0501493    	1.793660e-01	N/A
0.050225     	1.760440e-01	N/A
0.0503008    	1.768990e-01	N/A
0.0503766    	1.768140e-01	N/A
0.0504524    	1.765510e-01	N/A
0.0505282    	1.763470e-01	N/A
0.0506053    	1.728420e-01	N/A
0.0506824    	1.746120e-01	N/A
0.0507595    	1.747810e-01	N/A
0.0508366    	1.741260e-01	N/A
0.0509137    	1.737950e-01	N/A
0.0509908    	1.738510e-01	N/A
0.0510694    	1.700020e-01	N/A
0.051148     	1.714530e-01	N/A
0.0512267    	1.714220e-01	N/A
0.0513053    	1.712180e-01	N/A
0.0513839    	1.710900e-01	N/A
0.0514625    	1.711580e-01	N/A
0.0515429    	1.670450e-01	N/A
0.0516233    	1.688520e-01	N/A
0.0517037    	1.683450e-01	N/A
0.0517841    	1.683050e-01	N/A
0.0518645    	1.681420e-01	N/A
0.0519449    	1.682660e-01	N/A
0.0520274    	1.629820e-01	N/A
0.05211      	1.652130e-01	N/A
0.0521926    	1.650950e-01	N/A
0.0522752    	1.649100e-01	N/A
0.0523577    	1.647580e-01	N/A
0.0524403    	1.645790e-01	N/A
0.0525229    	1.646570e-01	N/A
0.0526054    	1.640630e-01	N/A
0.052691     	1.572440e-01	N/A
0.0527765    	1.604500e-01	N/A
0.052862     	1.595510e-01	N/A
0.0529475    	1.597940e-01	N/A
0.053033     	1.593610e-01	N/A
0.0531186    	1.586660e-01	N/A
0.0532041    	1.589650e-01	N/A
0.0532857    	1.677350e-01	N/A
0.0533673    	1.632560e-01	N/A
0.053449     	1.630350e-01	N/A
0.0535306    	1.623950e-01	N/A
0.0536122    	1.621990e-01	N/A
0.0536939    	1.623900e-01	N/A
0.0537755    	1.620110e-01	N/A
0.0538571    	1.619050e-01	N/A
0.0539388    	1.616940e-01	N/A
0.0540204    	1.614170e-01	N/A
0.0540958    	1.766700e-01	N/A
0.0541711    	1.689660e-01	N/A
0.0542465    	1.693480e-01	N/A
0.0543218    	1.691350e-01	N/A
0.0543972    	1.691710e-01	N/A
0.0544725    	1.692490e-01	N/A
0.0545479    	1.696920e-01	N/A
0.0546232    	1.694330e-01	N/A
0.0546986    	1.689400e-01	N/A
0.0547739    	1.691590e-01	N/A
0.0548493    	1.690900e-01	N/A
0.0549246    	1.686140e-01	N/A
0.055        	1.685030e-01	N/A
0.0550769    	1.645210e-01	N/A
0.0551527    	1.692270e-01	N/A
0.0552284    	1.675010e-01	N/A
0.0553041    	1.674260e-01	N/A
0.0553787    	1.701260e-01	N/A
0.0554532    	1.686190e-01	N/A
0.0555278    	1.688810e-01	N/A
0.0556023    	1.687970e-01	N/A
0.0556768    	1.690390e-01	N/A
0.0557501    	1.718720e-01	N/A
0.0558234    	1.701490e-01	N/A
0.0558967    	1.699370e-01	N/A
0.0559699    	1.702040e-01	N/A
0.0560419    	1.734750e-01	N/A
0.0561139    	1.711190e-01	N/A
0.0561858    	1.710780e-01	N/A
0.0562578    	1.710790e-01	N/A
0.0563298    	1.711610e-01	N/A
0.0564017    	1.705840e-01	N/A
0.0564723    	1.738090e-01	N/A
0.0565428    	1.712260e-01	N/A
0.0566134    	1.713520e-01	N/A
0.0566839    	1.711890e-01	N/A
0.0567545    	1.710690e-01	N/A
0.056825     	1.708210e-01	N/A
0.0568941    	1.754050e-01	N/A
0.0569631    	1.734190e-01	N/A
0.0570321    	1.737700e-01	N/A
0.0571011    	1.731520e-01	N/A
0.0571701    	1.732890e-01	N/A
0.0572392    	1.728040e-01	N/A
0.0573082    	1.726980e-01	N/A
0.0573755    	1.781820e-01	N/A
0.0574428    	1.753590e-01	N/A
0.0575101    	1.749740e-01	N/A
0.0575774    	1.753940e-01	N/A
0.0576447    	1.755040e-01	N/A
0.057712     	1.756640e-01	N/A
0.0577793    	1.753860e-01	N/A
0.0578466    	1.751080e-01	N/A
0.0579138    	1.746750e-01	N/A
0.057979     	1.814290e-01	N/A
0.0580442    	1.779400e-01	N/A
0.0581094    	1.780300e-01	N/A
0.0581746    	1.787120e-01	N/A
0.0582398    	1.786520e-01	N/A
0.058305     	1.783860e-01	N/A
0.0583702    	1.787540e-01	N/A
0.0584354    	1.784120e-01	N/A
0.0585006    	1.783680e-01	N/A
0.0585658    	1.780950e-01	N/A
0.058631     	1.782680e-01	N/A
0.0586962    	1.780340e-01	N/A
0.0587613    	1.781000e-01	N/A
0.0588265    	1.780110e-01	N/A
0.0588917    	1.780410e-01	N/A
0.0589533    	1.896000e-01	N/A
0.0590149    	1.845130e-01	N/A
0.0590764    	1.846200e-01	N/A
0.059138     	1.846420e-01	N/A
0.0591996    	1.848090e-01	N/A
0.0592612    	1.849820e-01	N/A
0.0593227    	1.843910e-01	N/A
0.0593843    	1.840370e-01	N/A
0.0594459    	1.845710e-01	N/A
0.0595074    	1.840460e-01	N/A
0.059569     	1.838270e-01	N/A
0.0596306    	1.842770e-01	N/A
0.0596921    	1.844730e-01	N/A
0.0597537    	1.838380e-01	N/A
0.0598153    	1.835440e-01	N/A
0.0598769    	1.833590e-01	N/A
0.0599384    	1.836480e-01	N/A
0.06         	1.834980e-01	N/A
0.0600633    	1.775060e-01	N/A
0.0601258    	1.825170e-01	N/A
0.0601883    	1.808900e-01	N/A
0.0602508    	1.812360e-01	N/A
0.0603133    	1.814260e-01	N/A
0.0603757    	1.812030e-01	N/A
0.0604382    	1.814340e-01	N/A
0.0605007    	1.810010e-01	N/A
0.0605632    	1.812700e-01	N/A
0.0606257    	1.811550e-01	N/A
0.0606882    	1.802740e-01	N/A
0.0607507    	1.800320e-01	N/A
0.0608132    	1.812500e-01	N/A
0.0608757    	1.811640e-01	N/A
0.0609382    	1.804210e-01	N/A
0.0610006    	1.803650e-01	N/A
0.0610622    	1.833800e-01	N/A
0.0611237    	1.821730e-01	N/A
0.0611852    	1.823260e-01	N/A
0.0612468    	1.821040e-01	N/A
0.0613083    	1.824420e-01	N/A
0.0613698    	1.821170e-01	N/A
0.0614313    	1.823380e-01	N/A
0.0614929    	1.824150e-01	N/A
0.0615544    	1.815240e-01	N/A
0.0616159    	1.818970e-01	N/A
0.0616775    	1.819770e-01	N/A
0.061739     	1.820500e-01	N/A
0.0618005    	1.822870e-01	N/A
0.061862     	1.817650e-01	N/A
0.0619236    	1.821410e-01	N/A
0.0619851    	1.820540e-01	N/A
0.0620466    	1.819200e-01	N/A
0.0621082    	1.814090e-01	N/A
0.0621697    	1.813020e-01	N/A
0.0622312    	1.817850e-01	N/A
0.0622927    	1.816990e-01	N/A
0.0623543    	1.815530e-01	N/A
0.0624158    	1.813560e-01	N/A
0.0624773    	1.808560e-01	N/A
0.0625389    	1.811980e-01	N/A
0.0626004    	1.819160e-01	N/A
0.0626619    	1.817910e-01	N/A
0.0627234    	1.817310e-01	N/A
0.062785     	1.815720e-01	N/A
0.0628465    	1.817710e-01	N/A
0.062908     	1.818530e-01	N/A
0.0629696    	1.814540e-01	N/A
0.0630311    	1.817740e-01	N/A
0.0630926    	1.818300e-01	N/A
0.0631541    	1.821670e-01	N/A
0.0632157    	1.826290e-01	N/A
0.0632772    	1.821520e-01	N/A
0.0633387    	1.824690e-01	N/A
0.0634003    	1.830500e-01	N/A
0.0634618    	1.826740e-01	N/A
0.0635233    	1.827640e-01	N/A
0.0635848    	1.826910e-01	N/A
0.0636464    	1.816750e-01	N/A
0.0637079    	1.825990e-01	N/A
0.0637694    	1.825580e-01	N/A
0.063831     	1.825840e-01	N/A
0.0638925    	1.825500e-01	N/A
0.063954     	1.821020e-01	N/A
0.0640155    	1.824470e-01	N/A
0.0640771    	1.827210e-01	N/A
0.0641386    	1.826770e-01	N/A
0.0642001    	1.826810e-01	N/A
0.0642617    	1.830190e-01	N/A
0.0643232    	1.834930e-01	N/A
0.0643847    	1.835730e-01	N/A
0.0644462    	1.834080e-01	N/A
0.0645078    	1.829200e-01	N/A
0.0645693    	1.830330e-01	N/A
0.0646308    	1.829240e-01	N/A
0.0646924    	1.827800e-01	N/A
0.0647539    	1.831760e-01	N/A
0.0648154    	1.835680e-01	N/A
0.0648769    	1.832910e-01	N/A
0.0649385    	1.832240e-01	N/A
0.065        	1.831920e-01	N/A
0.0650649    	1.722250e-01	N/A
0.0651307    	1.745290e-01	N/A
0.0651965    	1.753790e-01	N/A
0.0652623    	1.750420e-01	N/A
0.0653281    	1.746810e-01	N/A
0.0653939    	1.748310e-01	N/A
0.0654597    	1.747850e-01	N/A
0.0655265    	1.719780e-01	N/A
0.0655933    	1.726650e-01	N/A
0.06566      	1.722910e-01	N/A
0.0657268    	1.722750e-01	N/A
0.0657936    	1.724730e-01	N/A
0.0658604    	1.722260e-01	N/A
0.0659271    	1.724510e-01	N/A
0.065995     	1.691840e-01	N/A
0.0660629    	1.707430e-01	N/A
0.0661308    	1.707030e-01	N/A
0.0661986    	1.707980e-01	N/A
0.0662665    	1.710440e-01	N/A
0.0663344    	1.712510e-01	N/A
0.0664023    	1.706430e-01	N/A
0.0664715    	1.670380e-01	N/A
0.0665407    	1.694110e-01	N/A