# Forces     
# CofR       : (0.000000e+00 0.000000e+00 0.000000e+00)
# Time       forces(pressure viscous porous)	moments(pressure viscous porous)
0.001        	((2.437830e+01 -6.231421e-15 2.340401e-32) (4.395132e-05 8.257826e-04 -1.337317e-19) (0.000000e+00 0.000000e+00 0.000000e+00)) ((4.158793e-33 6.580592e-17 -3.358879e+00) (-6.205654e-20 6.465107e-23 -1.103750e-05) (0.000000e+00 0.000000e+00 0.000000e+00))
0.002        	((1.940475e+00 5.005785e-04 -3.164799e-15) (2.693914e-05 1.245885e-03 5.067833e-17) (0.000000e+00 0.000000e+00 0.000000e+00)) ((-1.497281e-15 -3.689196e-17 -3.452442e-01) (1.723615e-18 4.838685e-22 -5.723759e-06) (0.000000e+00 0.000000e+00 0.000000e+00))
0.003        	((1.698390e+00 1.771597e-03 -3.920968e-17) (4.264688e-05 1.526621e-03 1.778580e-19) (0.000000e+00 0.000000e+00 0.000000e+00)) ((-1.126322e-17 -4.711586e-18 -3.019360e-01) (-5.272343e-20 9.120953e-24 -8.586104e-06) (0.000000e+00 0.000000e+00 0.000000e+00))
0.004        	((1.552102e+00 3.287191e-03 -3.094271e-15) (4.261195e-05 1.717883e-03 5.168328e-17) (0.000000e+00 0.000000e+00 0.000000e+00)) ((-1.476679e-15 -8.961485e-19 -2.730101e-01) (1.446471e-18 3.130998e-21 -9.006755e-06) (0.000000e+00 0.000000e+00 0.000000e+00))
0.005        	((1.429054e+00 4.617551e-03 -7.835872e-17) (2.992048e-05 1.854572e-03 1.604023e-19) (0.000000e+00 0.000000e+00 0.000000e+00)) ((-2.231756e-17 -1.602356e-18 -2.494235e-01) (1.142238e-19 4.216025e-22 -7.252566e-06) (0.000000e+00 0.000000e+00 0.000000e+00))
0.006        	((1.354348e+00 5.931945e-03 -3.161888e-15) (2.126581e-05 1.951806e-03 5.139042e-17) (0.000000e+00 0.000000e+00 0.000000e+00)) ((-1.493537e-15 -4.746613e-17 -2.349099e-01) (1.018990e-18 4.506116e-21 -6.281799e-06) (0.000000e+00 0.000000e+00 0.000000e+00))
0.007        	((1.310626e+00 7.290723e-03 2.352432e-18) (1.457782e-05 2.019577e-03 3.631321e-19) (0.000000e+00 0.000000e+00 0.000000e+00)) ((3.408998e-19 -1.421519e-17 -2.257017e-01) (-5.814126e-20 -2.868885e-22 -5.640101e-06) (0.000000e+00 0.000000e+00 0.000000e+00))
0.008        	((1.275434e+00 8.645657e-03 -3.170046e-15) (9.290607e-06 2.068696e-03 5.250841e-17) (0.000000e+00 0.000000e+00 0.000000e+00)) ((-1.495927e-15 -2.256919e-17 -2.184128e-01) (1.273270e-18 8.665254e-21 -5.254288e-06) (0.000000e+00 0.000000e+00 0.000000e+00))
0.009        	((1.226198e+00 9.842161e-03 -1.473574e-17) (4.812561e-06 2.100336e-03 2.765864e-18) (0.000000e+00 0.000000e+00 0.000000e+00)) ((-1.762245e-18 -1.255609e-17 -2.088469e-01) (8.019909e-20 6.753457e-22 -4.998634e-06) (0.000000e+00 0.000000e+00 0.000000e+00))
0.01         	((1.198508e+00 1.115337e-02 -3.201807e-15) (9.058097e-07 2.117470e-03 5.420520e-17) (0.000000e+00 0.000000e+00 0.000000e+00)) ((-1.499807e-15 -2.653223e-17 -2.027638e-01) (1.553983e-18 1.449071e-20 -4.830490e-06) (0.000000e+00 0.000000e+00 0.000000e+00))
0.011        	((1.172504e+00 1.244773e-02 1.007305e-17) (-2.589060e-06 2.125859e-03 -3.504772e-18) (0.000000e+00 0.000000e+00 0.000000e+00)) ((7.810156e-19 1.777111e-17 -1.972250e-01) (-5.235558e-19 -5.530089e-21 -4.734189e-06) (0.000000e+00 0.000000e+00 0.000000e+00))
0.012        	((1.142679e+00 1.366312e-02 -3.207350e-15) (-5.835734e-06 2.128216e-03 5.890731e-17) (0.000000e+00 0.000000e+00 0.000000e+00)) ((-1.499281e-15 -1.626523e-17 -1.912850e-01) (2.564390e-18 3.069167e-20 -4.682327e-06) (0.000000e+00 0.000000e+00 0.000000e+00))
0.013        	((1.119750e+00 1.492387e-02 -6.493170e-18) (-8.910064e-06 2.124342e-03 -1.105495e-18) (0.000000e+00 0.000000e+00 0.000000e+00)) ((7.055163e-19 -5.545845e-18 -1.864555e-01) (-6.385434e-19 -8.481849e-21 -4.659806e-06) (0.000000e+00 0.000000e+00 0.000000e+00))
0.014        	((1.101220e+00 1.621911e-02 -2.939029e-15) (-1.186730e-05 2.116029e-03 5.181489e-17) (0.000000e+00 0.000000e+00 0.000000e+00)) ((-1.427992e-15 -4.445839e-17 -1.824495e-01) (1.864677e-18 2.749190e-20 -4.654956e-06) (0.000000e+00 0.000000e+00 0.000000e+00))
0.015        	((1.080673e+00 1.746167e-02 4.228622e-18) (-1.474221e-05 2.104447e-03 -3.125499e-18) (0.000000e+00 0.000000e+00 0.000000e+00)) ((-2.206762e-18 1.498801e-18 -1.782521e-01) (-2.673852e-19 -4.291894e-21 -4.655263e-06) (0.000000e+00 0.000000e+00 0.000000e+00))
0.016        	((1.061186e+00 1.869506e-02 -2.991584e-15) (-1.755408e-05 2.090286e-03 5.788785e-17) (0.000000e+00 0.000000e+00 0.000000e+00)) ((-1.436334e-15 -5.774480e-17 -1.742993e-01) (2.866726e-18 5.053018e-20 -4.656929e-06) (0.000000e+00 0.000000e+00 0.000000e+00))
0.017        	((1.048702e+00 2.003556e-02 2.166827e-17) (-2.030043e-05 2.072597e-03 -1.553663e-18) (0.000000e+00 0.000000e+00 0.000000e+00)) ((5.327385e-19 1.939468e-17 -1.714174e-01) (-2.464017e-19 -4.679162e-21 -4.658788e-06) (0.000000e+00 0.000000e+00 0.000000e+00))
0.018        	((1.032836e+00 2.129890e-02 -2.958333e-15) (-2.301245e-05 2.053195e-03 5.537554e-17) (0.000000e+00 0.000000e+00 0.000000e+00)) ((-1.428159e-15 -3.155008e-17 -1.681433e-01) (2.674578e-18 5.518284e-20 -4.657973e-06) (0.000000e+00 0.000000e+00 0.000000e+00))
0.019        	((1.017918e+00 2.256420e-02 6.822104e-18) (-2.567339e-05 2.031961e-03 -3.224534e-18) (0.000000e+00 0.000000e+00 0.000000e+00)) ((1.686951e-18 8.651668e-18 -1.650606e-01) (-9.086396e-19 -2.011416e-20 -4.654547e-06) (0.000000e+00 0.000000e+00 0.000000e+00))
0.02         	((1.004614e+00 2.385016e-02 -2.988061e-15) (-2.828000e-05 2.009357e-03 6.065247e-17) (0.000000e+00 0.000000e+00 0.000000e+00)) ((-1.429583e-15 -3.070383e-17 -1.622868e-01) (3.260054e-18 7.742388e-20 -4.650958e-06) (0.000000e+00 0.000000e+00 0.000000e+00))
0.021        	((9.961972e-01 2.524608e-02 1.247836e-19) (-3.083855e-05 1.985971e-03 -4.123543e-18) (0.000000e+00 0.000000e+00 0.000000e+00)) ((-1.247754e-18 3.191789e-18 -1.602852e-01) (-1.371546e-18 -3.473068e-20 -4.648409e-06) (0.000000e+00 0.000000e+00 0.000000e+00))
0.022        	((9.842933e-01 2.654869e-02 -3.004441e-15) (-3.336584e-05 1.961657e-03 5.625640e-17) (0.000000e+00 0.000000e+00 0.000000e+00)) ((-1.426703e-15 -6.567239e-17 -1.578042e-01) (1.968163e-18 5.311404e-20 -4.640139e-06) (0.000000e+00 0.000000e+00 0.000000e+00))
0.023        	((9.735635e-01 2.787330e-02 -1.187041e-15) (-3.583492e-05 1.936704e-03 -9.340128e-18) (0.000000e+00 0.000000e+00 0.000000e+00)) ((-3.434935e-16 1.300982e-17 -1.555477e-01) (-3.215650e-18 -9.203636e-20 -4.634771e-06) (0.000000e+00 0.000000e+00 0.000000e+00))
0.024        	((9.633170e-01 2.920381e-02 -1.746646e-15) (-3.826963e-05 1.911334e-03 7.015242e-17) (0.000000e+00 0.000000e+00 0.000000e+00)) ((-1.069449e-15 -7.573141e-17 -1.534071e-01) (5.535565e-18 1.678444e-19 -4.626823e-06) (0.000000e+00 0.000000e+00 0.000000e+00))
0.025        	((9.568640e-01 3.064770e-02 -1.197783e-15) (-4.064319e-05 1.885044e-03 -1.269214e-17) (0.000000e+00 0.000000e+00 0.000000e+00)) ((-3.465352e-16 -1.329792e-17 -1.518271e-01) (-3.334313e-18 -1.067677e-19 -4.617782e-06) (0.000000e+00 0.000000e+00 0.000000e+00))
0.026        	((9.477340e-01 3.200536e-02 -1.607110e-15) (-4.299448e-05 1.858757e-03 3.185602e-17) (0.000000e+00 0.000000e+00 0.000000e+00)) ((-1.053951e-15 -6.643137e-17 -1.499268e-01) (9.774964e-19 3.303937e-20 -4.604808e-06) (0.000000e+00 0.000000e+00 0.000000e+00))
0.027        	((9.387929e-01 3.336384e-02 -1.224564e-15) (-4.530889e-05 1.832229e-03 -4.701185e-18) (0.000000e+00 0.000000e+00 0.000000e+00)) ((-3.512663e-16 -3.928131e-19 -1.480719e-01) (-3.422939e-18 -1.216192e-19 -4.588827e-06) (0.000000e+00 0.000000e+00 0.000000e+00))
0.028        	((9.301197e-01 3.472627e-02 -1.785782e-15) (-4.759936e-05 1.805906e-03 6.848015e-17) (0.000000e+00 0.000000e+00 0.000000e+00)) ((-1.079250e-15 -6.041333e-17 -1.463114e-01) (7.465559e-18 2.787596e-19 -4.571864e-06) (0.000000e+00 0.000000e+00 0.000000e+00))
0.029        	((9.222671e-01 3.611494e-02 -1.189712e-15) (-4.984353e-05 1.779459e-03 -6.276117e-18) (0.000000e+00 0.000000e+00 0.000000e+00)) ((-3.459616e-16 -3.011848e-17 -1.446710e-01) (-3.389934e-18 -1.327180e-19 -4.555829e-06) (0.000000e+00 0.000000e+00 0.000000e+00))
0.03         	((9.135225e-01 3.746335e-02 -1.642752e-15) (-5.206589e-05 1.753556e-03 3.701067e-17) (0.000000e+00 0.000000e+00 0.000000e+00)) ((-1.050384e-15 -7.394786e-17 -1.429517e-01) (1.726232e-18 7.082139e-20 -4.541555e-06) (0.000000e+00 0.000000e+00 0.000000e+00))
0.031        	((9.046199e-01 3.879722e-02 -1.345146e-15) (-5.428114e-05 1.728315e-03 3.299697e-18) (0.000000e+00 0.000000e+00 0.000000e+00)) ((-3.711520e-16 -3.609883e-17 -1.412285e-01) (-1.065896e-18 -4.568570e-20 -4.525658e-06) (0.000000e+00 0.000000e+00 0.000000e+00))
0.032        	((8.965212e-01 4.015790e-02 -1.682072e-15) (-5.648924e-05 1.703664e-03 4.588974e-17) (0.000000e+00 0.000000e+00 0.000000e+00)) ((-1.061726e-15 -5.340983e-17 -1.396494e-01) (3.785132e-18 1.695772e-19 -4.508402e-06) (0.000000e+00 0.000000e+00 0.000000e+00))
0.033        	((8.894099e-01 4.155777e-02 -1.294220e-15) (-5.867425e-05 1.679276e-03 -5.224515e-18) (0.000000e+00 0.000000e+00 0.000000e+00)) ((-3.617818e-16 -2.994665e-17 -1.382240e-01) (-2.986363e-18 -1.395096e-19 -4.489691e-06) (0.000000e+00 0.000000e+00 0.000000e+00))
0.034        	((8.827807e-01 4.297729e-02 -1.753711e-15) (-6.082250e-05 1.654934e-03 3.852670e-17) (0.000000e+00 0.000000e+00 0.000000e+00)) ((-1.067819e-15 -9.187611e-17 -1.368788e-01) (2.518833e-18 1.226562e-19 -4.470053e-06) (0.000000e+00 0.000000e+00 0.000000e+00))
0.035        	((8.751541e-01 4.434367e-02 -1.337088e-15) (-6.294527e-05 1.630950e-03 1.197671e-17) (0.000000e+00 0.000000e+00 0.000000e+00)) ((-3.651752e-16 -1.902105e-17 -1.354203e-01) (-1.162758e-18 -5.888790e-20 -4.449217e-06) (0.000000e+00 0.000000e+00 0.000000e+00))
0.036        	((8.680363e-01 4.572965e-02 -1.812155e-15) (-6.503076e-05 1.607162e-03 6.025801e-17) (0.000000e+00 0.000000e+00 0.000000e+00)) ((-1.071833e-15 -9.099969e-17 -1.340428e-01) (4.681824e-18 2.466751e-19 -4.427458e-06) (0.000000e+00 0.000000e+00 0.000000e+00))
0.037        	((8.605948e-01 4.709207e-02 -1.272604e-15) (-6.709480e-05 1.583834e-03 -1.386946e-17) (0.000000e+00 0.000000e+00 0.000000e+00)) ((-3.654122e-16 -8.005723e-18 -1.326596e-01) (-3.878057e-18 -2.121812e-19 -4.405088e-06) (0.000000e+00 0.000000e+00 0.000000e+00))
0.038        	((8.545355e-01 4.852514e-02 -1.655652e-15) (-6.910694e-05 1.560451e-03 1.928950e-17) (0.000000e+00 0.000000e+00 0.000000e+00)) ((-1.053143e-15 -6.216186e-17 -1.314533e-01) (1.538776e-18 8.740964e-20 -4.382324e-06) (0.000000e+00 0.000000e+00 0.000000e+00))
0.039        	((8.471640e-01 4.987820e-02 -2.716784e-15) (-7.109126e-05 1.537524e-03 1.714884e-17) (0.000000e+00 0.000000e+00 0.000000e+00)) ((-7.414441e-16 -3.526163e-17 -1.300950e-01) (-1.464919e-18 -8.622151e-20 -4.358154e-06) (0.000000e+00 0.000000e+00 0.000000e+00))
0.04         	((8.409248e-01 5.129145e-02 -1.709065e-15) (-7.304006e-05 1.515085e-03 4.426208e-17) (0.000000e+00 0.000000e+00 0.000000e+00)) ((-1.052959e-15 -1.024244e-16 -1.289126e-01) (4.778321e-18 2.914779e-19 -4.335196e-06) (0.000000e+00 0.000000e+00 0.000000e+00))
0.041        	((8.348536e-01 5.271063e-02 -2.502004e-15) (-7.496959e-05 1.493199e-03 -4.233374e-17) (0.000000e+00 0.000000e+00 0.000000e+00)) ((-7.117607e-16 -6.522935e-17 -1.277779e-01) (-9.386734e-18 -5.926277e-19 -4.312218e-06) (0.000000e+00 0.000000e+00 0.000000e+00))
0.042        	((8.289264e-01 5.413468e-02 -1.674280e-15) (-7.684254e-05 1.471268e-03 5.989698e-17) (0.000000e+00 0.000000e+00 0.000000e+00)) ((-1.040690e-15 -9.901402e-17 -1.266583e-01) (5.803908e-18 3.790646e-19 -4.288706e-06) (0.000000e+00 0.000000e+00 0.000000e+00))
0.043        	((8.248991e-01 5.568255e-02 -2.533823e-15) (-7.862902e-05 1.448980e-03 7.151098e-18) (0.000000e+00 0.000000e+00 0.000000e+00)) ((-7.256104e-16 -5.852664e-17 -1.257999e-01) (-1.545553e-18 -1.043011e-19 -4.266407e-06) (0.000000e+00 0.000000e+00 0.000000e+00))
0.044        	((8.198225e-01 5.716073e-02 -1.915376e-15) (-8.036450e-05 1.426796e-03 4.166904e-17) (0.000000e+00 0.000000e+00 0.000000e+00)) ((-1.068662e-15 -1.360474e-16 -1.248291e-01) (5.393345e-18 3.760711e-19 -4.244196e-06) (0.000000e+00 0.000000e+00 0.000000e+00))
0.045        	((8.144768e-01 5.861798e-02 -2.619407e-15) (-8.205412e-05 1.404884e-03 1.806630e-17) (0.000000e+00 0.000000e+00 0.000000e+00)) ((-7.338604e-16 -5.700822e-17 -1.238490e-01) (-1.441085e-18 -1.036874e-19 -4.222358e-06) (0.000000e+00 0.000000e+00 0.000000e+00))
0.046        	((8.095548e-01 6.010346e-02 -2.000936e-15) (-8.369771e-05 1.383200e-03 1.128971e-16) (0.000000e+00 0.000000e+00 0.000000e+00)) ((-1.095178e-15 -1.016366e-16 -1.229329e-01) (1.218529e-17 9.046956e-19 -4.200593e-06) (0.000000e+00 0.000000e+00 0.000000e+00))
0.047        	((8.040218e-01 6.154042e-02 -2.490325e-15) (-8.530265e-05 1.361819e-03 1.086996e-17) (0.000000e+00 0.000000e+00 0.000000e+00)) ((-7.038166e-16 -5.270261e-17 -1.219389e-01) (-1.477754e-18 -1.130804e-19 -4.178021e-06) (0.000000e+00 0.000000e+00 0.000000e+00))
0.048        	((7.991416e-01 6.302385e-02 -1.936593e-15) (-8.686582e-05 1.340719e-03 5.649029e-17) (0.000000e+00 0.000000e+00 0.000000e+00)) ((-1.074337e-15 -9.790056e-17 -1.210536e-01) (4.461338e-18 3.518689e-19 -4.155758e-06) (0.000000e+00 0.000000e+00 0.000000e+00))
0.049        	((7.943041e-01 6.450830e-02 -2.629347e-15) (-8.839774e-05 1.320098e-03 3.386464e-17) (0.000000e+00 0.000000e+00 0.000000e+00)) ((-7.212725e-16 -6.820451e-17 -1.202046e-01) (-7.357634e-19 -5.972706e-20 -4.134791e-06) (0.000000e+00 0.000000e+00 0.000000e+00))
0.05         	((7.897764e-01 6.601598e-02 -1.995422e-15) (-8.989323e-05 1.299733e-03 7.128047e-17) (0.000000e+00 0.000000e+00 0.000000e+00)) ((-1.083402e-15 -1.235107e-16 -1.193990e-01) (7.442518e-18 6.221339e-19 -4.113968e-06) (0.000000e+00 0.000000e+00 0.000000e+00))
0.051        	((7.847046e-01 6.747528e-02 -2.650274e-15) (-9.137309e-05 1.279890e-03 -1.997253e-18) (0.000000e+00 0.000000e+00 0.000000e+00)) ((-7.345370e-16 -4.049161e-17 -1.185359e-01) (-2.966133e-18 -2.550253e-19 -4.092273e-06) (0.000000e+00 0.000000e+00 0.000000e+00))
0.052        	((7.809964e-01 6.905050e-02 -1.941809e-15) (-9.280841e-05 1.260257e-03 6.301336e-17) (0.000000e+00 0.000000e+00 0.000000e+00)) ((-1.071110e-15 -1.079257e-16 -1.178641e-01) (6.025748e-18 5.327845e-19 -4.072138e-06) (0.000000e+00 0.000000e+00 0.000000e+00))
0.053        	((7.762496e-01 7.053298e-02 -2.671318e-15) (-9.421600e-05 1.240968e-03 1.039845e-17) (0.000000e+00 0.000000e+00 0.000000e+00)) ((-7.341133e-16 -6.378826e-17 -1.170649e-01) (-1.298221e-18 -1.179346e-19 -4.052050e-06) (0.000000e+00 0.000000e+00 0.000000e+00))
0.054        	((7.707629e-01 7.194259e-02 -2.092054e-15) (-9.558286e-05 1.221853e-03 5.935605e-17) (0.000000e+00 0.000000e+00 0.000000e+00)) ((-1.097183e-15 -1.030703e-16 -1.161706e-01) (6.484714e-18 6.053068e-19 -4.031191e-06) (0.000000e+00 0.000000e+00 0.000000e+00))
0.055        	((7.651199e-01 7.332930e-02 -2.542023e-15) (-9.692666e-05 1.203098e-03 2.058321e-18) (0.000000e+00 0.000000e+00 0.000000e+00)) ((-7.244150e-16 -7.550406e-17 -1.152647e-01) (-2.613899e-18 -2.504902e-19 -4.010309e-06) (0.000000e+00 0.000000e+00 0.000000e+00))
0.056        	((7.596105e-01 7.471998e-02 -1.808052e-15) (-9.830408e-05 1.185330e-03 2.730973e-17) (0.000000e+00 0.000000e+00 0.000000e+00)) ((-1.051982e-15 -1.167348e-16 -1.144100e-01) (3.151689e-18 3.100473e-19 -3.990996e-06) (0.000000e+00 0.000000e+00 0.000000e+00))
0.057        	((7.546651e-01 7.615863e-02 -2.380528e-15) (-9.964747e-05 1.167800e-03 -2.900522e-17) (0.000000e+00 0.000000e+00 0.000000e+00)) ((-6.968724e-16 -6.203804e-17 -1.136199e-01) (-7.479083e-18 -7.547406e-19 -3.971959e-06) (0.000000e+00 0.000000e+00 0.000000e+00))
0.058        	((7.496548e-01 7.758403e-02 -1.899443e-15) (-1.009653e-04 1.150614e-03 6.535652e-17) (0.000000e+00 0.000000e+00 0.000000e+00)) ((-1.057584e-15 -1.209544e-16 -1.128282e-01) (7.465466e-18 7.726502e-19 -3.953817e-06) (0.000000e+00 0.000000e+00 0.000000e+00))
0.059        	((7.444297e-01 7.897937e-02 -2.583843e-15) (-1.022535e-04 1.133754e-03 6.213678e-17) (0.000000e+00 0.000000e+00 0.000000e+00)) ((-7.360110e-16 -8.061866e-17 -1.120145e-01) (7.555667e-18 8.016348e-19 -3.937487e-06) (0.000000e+00 0.000000e+00 0.000000e+00))
0.06         	((7.391133e-01 8.035600e-02 -1.948492e-15) (-1.035112e-04 1.117169e-03 7.508028e-17) (0.000000e+00 0.000000e+00 0.000000e+00)) ((-1.067770e-15 -1.293859e-16 -1.111889e-01) (9.043111e-18 9.831886e-19 -3.921831e-06) (0.000000e+00 0.000000e+00 0.000000e+00))
0.061        	((7.342787e-01 8.177657e-02 -1.288384e-16) (-1.047136e-04 1.100716e-03 1.794387e-17) (0.000000e+00 0.000000e+00 0.000000e+00)) ((-1.567627e-17 -6.094414e-18 -1.104256e-01) (3.250310e-19 3.622373e-20 -3.908469e-06) (0.000000e+00 0.000000e+00 0.000000e+00))
0.062        	((7.300296e-01 8.325639e-02 -1.814655e-15) (-1.058646e-04 1.084472e-03 3.036683e-17) (0.000000e+00 0.000000e+00 0.000000e+00)) ((-1.038175e-15 -1.569179e-16 -1.097472e-01) (1.925060e-18 2.195709e-19 -3.899992e-06) (0.000000e+00 0.000000e+00 0.000000e+00))
0.063        	((7.253932e-01 8.468623e-02 2.360034e-16) (-1.070082e-04 1.068463e-03 -4.364271e-17) (0.000000e+00 0.000000e+00 0.000000e+00)) ((5.535051e-17 2.191425e-17 -1.090307e-01) (-1.660586e-17 -1.938629e-18 -3.885256e-06) (0.000000e+00 0.000000e+00 0.000000e+00))
0.064        	((7.197121e-01 8.598410e-02 -1.702479e-15) (-1.081657e-04 1.052890e-03 1.182345e-17) (0.000000e+00 0.000000e+00 0.000000e+00)) ((-1.037972e-15 -1.409595e-16 -1.081660e-01) (1.128717e-17 1.348505e-18 -3.864660e-06) (0.000000e+00 0.000000e+00 0.000000e+00))
0.065        	((7.149914e-01 8.738608e-02 -7.483796e-17) (-1.093187e-04 1.037688e-03 -5.894546e-18) (0.000000e+00 0.000000e+00 0.000000e+00)) ((6.411770e-18 -1.783908e-18 -1.074503e-01) (-1.117113e-17 -1.365308e-18 -3.841990e-06) (0.000000e+00 0.000000e+00 0.000000e+00))
0.066        	((7.111245e-01 8.888638e-02 -2.105332e-15) (-1.104159e-04 1.022525e-03 8.956972e-17) (0.000000e+00 0.000000e+00 0.000000e+00)) ((-1.091389e-15 -1.389638e-16 -1.068422e-01) (1.523193e-17 1.903927e-18 -3.820659e-06) (0.000000e+00 0.000000e+00 0.000000e+00))
0.067        	((7.048689e-01 9.007748e-02 8.585173e-17) (-1.114572e-04 1.007353e-03 -8.319136e-17) (0.000000e+00 0.000000e+00 0.000000e+00)) ((1.179559e-17 3.497377e-17 -1.059065e-01) (-1.641671e-17 -2.097920e-18 -3.798782e-06) (0.000000e+00 0.000000e+00 0.000000e+00))
0.068        	((6.979765e-01 9.116766e-02 -2.208021e-15) (-1.124452e-04 9.921956e-04 8.217725e-17) (0.000000e+00 0.000000e+00 0.000000e+00)) ((-1.120969e-15 -1.652430e-16 -1.048884e-01) (1.075540e-17 1.404864e-18 -3.776848e-06) (0.000000e+00 0.000000e+00 0.000000e+00))
0.069        	((6.929083e-01 9.247945e-02 -2.037690e-16) (-1.133550e-04 9.768962e-04 -4.241372e-17) (0.000000e+00 0.000000e+00 0.000000e+00)) ((-5.799983e-17 -1.394397e-17 -1.041195e-01) (-7.255957e-18 -9.683961e-19 -3.756089e-06) (0.000000e+00 0.000000e+00 0.000000e+00))
0.07         	((6.886099e-01 9.388428e-02 -2.417760e-15) (-1.141683e-04 9.613791e-04 2.214528e-16) (0.000000e+00 0.000000e+00 0.000000e+00)) ((-1.105923e-15 -1.714204e-16 -1.034659e-01) (2.800149e-17 3.817715e-18 -3.736446e-06) (0.000000e+00 0.000000e+00 0.000000e+00))
0.071        	((6.847317e-01 9.533975e-02 -1.502378e-16) (-1.149316e-04 9.460607e-04 -2.805019e-18) (0.000000e+00 0.000000e+00 0.000000e+00)) ((-3.108638e-18 -1.026418e-17 -1.028757e-01) (-7.024073e-18 -9.779842e-19 -3.718442e-06) (0.000000e+00 0.000000e+00 0.000000e+00))
0.072        	((6.806778e-01 9.676454e-02 -2.316542e-15) (-1.156705e-04 9.311454e-04 1.283944e-16) (0.000000e+00 0.000000e+00 0.000000e+00)) ((-1.091968e-15 -1.849313e-16 -1.022740e-01) (1.806222e-17 2.567734e-18 -3.701643e-06) (0.000000e+00 0.000000e+00 0.000000e+00))
0.073        	((6.765044e-01 9.816501e-02 4.278004e-17) (-1.163420e-04 9.163115e-04 -2.665366e-17) (0.000000e+00 0.000000e+00 0.000000e+00)) ((-1.407010e-17 2.605077e-17 -1.016548e-01) (-8.866187e-18 -1.286515e-18 -3.685710e-06) (0.000000e+00 0.000000e+00 0.000000e+00))
0.074        	((6.716105e-01 9.945079e-02 -1.775399e-15) (-1.169684e-04 9.016459e-04 4.197666e-17) (0.000000e+00 0.000000e+00 0.000000e+00)) ((-1.035289e-15 -1.721943e-16 -1.009429e-01) (6.693423e-18 9.911726e-19 -3.669354e-06) (0.000000e+00 0.000000e+00 0.000000e+00))
0.075        	((6.671019e-01 1.007822e-01 -2.038084e-16) (-1.175412e-04 8.870761e-04 4.106891e-18) (0.000000e+00 0.000000e+00 0.000000e+00)) ((-5.256357e-17 -1.058026e-17 -1.002916e-01) (-2.882180e-18 -4.353999e-19 -3.652944e-06) (0.000000e+00 0.000000e+00 0.000000e+00))
0.076        	((6.633756e-01 1.022234e-01 -2.318258e-15) (-1.180428e-04 8.724940e-04 1.556529e-16) (0.000000e+00 0.000000e+00 0.000000e+00)) ((-1.088148e-15 -1.974400e-16 -9.974034e-02) (2.341167e-17 3.607666e-18 -3.636730e-06) (0.000000e+00 0.000000e+00 0.000000e+00))
0.077        	((6.597028e-01 1.036669e-01 -1.715522e-16) (-1.186073e-04 8.587531e-04 -1.789321e-17) (0.000000e+00 0.000000e+00 0.000000e+00)) ((-3.372338e-17 6.538442e-18 -9.923046e-02) (-6.964050e-18 -1.094320e-18 -3.621151e-06) (0.000000e+00 0.000000e+00 0.000000e+00))
0.078        	((6.560552e-01 1.051083e-01 -2.088626e-15) (-1.191727e-04 8.454187e-04 1.545237e-16) (0.000000e+00 0.000000e+00 0.000000e+00)) ((-1.019264e-15 -1.822450e-16 -9.871578e-02) (2.032667e-17 3.256614e-18 -3.605999e-06) (0.000000e+00 0.000000e+00 0.000000e+00))
0.079        	((6.517639e-01 1.064384e-01 7.509555e-17) (-1.197003e-04 8.322131e-04 -3.736363e-17) (0.000000e+00 0.000000e+00 0.000000e+00)) ((2.041223e-17 1.516146e-17 -9.810056e-02) (-1.197092e-17 -1.954925e-18 -3.590152e-06) (0.000000e+00 0.000000e+00 0.000000e+00))
0.08         	((6.476732e-01 1.077913e-01 -1.708566e-15) (-1.201530e-04 8.189262e-04 3.322735e-17) (0.000000e+00 0.000000e+00 0.000000e+00)) ((-1.006038e-15 -1.882175e-16 -9.751629e-02) (8.154336e-18 1.357140e-18 -3.574430e-06) (0.000000e+00 0.000000e+00 0.000000e+00))
0.081        	((6.426360e-01 1.089743e-01 -3.218397e-16) (-1.205183e-04 8.054694e-04 -3.504153e-17) (0.000000e+00 0.000000e+00 0.000000e+00)) ((-5.383610e-17 -4.551057e-18 -9.679722e-02) (-7.174722e-18 -1.216622e-18 -3.557647e-06) (0.000000e+00 0.000000e+00 0.000000e+00))
0.082        	((6.383188e-01 1.102657e-01 -2.101049e-15) (-1.207601e-04 7.916486e-04 1.028592e-16) (0.000000e+00 0.000000e+00 0.000000e+00)) ((-1.060638e-15 -1.786352e-16 -9.616829e-02) (1.193464e-17 2.061662e-18 -3.539807e-06) (0.000000e+00 0.000000e+00 0.000000e+00))
0.083        	((6.335609e-01 1.114681e-01 -1.080573e-17) (-1.209408e-04 7.778416e-04 -4.000559e-17) (0.000000e+00 0.000000e+00 0.000000e+00)) ((-5.336696e-18 -1.271927e-17 -9.548672e-02) (-8.466573e-18 -1.489579e-18 -3.521344e-06) (0.000000e+00 0.000000e+00 0.000000e+00))
0.084        	((6.291773e-01 1.127228e-01 -1.860698e-15) (-1.210428e-04 7.639693e-04 6.666992e-17) (0.000000e+00 0.000000e+00 0.000000e+00)) ((-1.009017e-15 -2.143505e-16 -9.485755e-02) (1.060461e-17 1.899935e-18 -3.502466e-06) (0.000000e+00 0.000000e+00 0.000000e+00))
0.085        	((6.249414e-01 1.139919e-01 4.075612e-16) (-1.211271e-04 7.503715e-04 -7.688297e-17) (0.000000e+00 0.000000e+00 0.000000e+00)) ((3.832475e-17 9.742625e-18 -9.426005e-02) (-1.828121e-17 -3.334545e-18 -3.483345e-06) (0.000000e+00 0.000000e+00 0.000000e+00))
0.086        	((6.210068e-01 1.153049e-01 -2.221488e-15) (-1.211870e-04 7.370179e-04 1.085719e-16) (0.000000e+00 0.000000e+00 0.000000e+00)) ((-1.075519e-15 -2.114899e-16 -9.370682e-02) (1.623271e-17 3.014019e-18 -3.464195e-06) (0.000000e+00 0.000000e+00 0.000000e+00))
0.087        	((6.154496e-01 1.163011e-01 -4.719520e-16) (-1.211415e-04 7.234266e-04 -4.352687e-18) (0.000000e+00 0.000000e+00 0.000000e+00)) ((-7.766982e-17 -1.559279e-17 -9.292336e-02) (-7.506677e-18 -1.418509e-18 -3.443056e-06) (0.000000e+00 0.000000e+00 0.000000e+00))
0.088        	((6.106303e-01 1.174179e-01 -2.195816e-15) (-1.210089e-04 7.097286e-04 1.097912e-16) (0.000000e+00 0.000000e+00 0.000000e+00)) ((-1.055063e-15 -2.165415e-16 -9.224624e-02) (1.874983e-17 3.605422e-18 -3.420808e-06) (0.000000e+00 0.000000e+00 0.000000e+00))
0.089        	((6.077246e-01 1.188922e-01 4.271956e-17) (-1.209427e-04 6.967672e-04 -2.865099e-17) (0.000000e+00 0.000000e+00 0.000000e+00)) ((-2.158967e-18 4.132528e-18 -9.186325e-02) (-5.244787e-18 -1.026042e-18 -3.399954e-06) (0.000000e+00 0.000000e+00 0.000000e+00))
0.09         	((6.046134e-01 1.203215e-01 -1.837348e-15) (-1.208042e-04 6.837835e-04 6.815370e-17) (0.000000e+00 0.000000e+00 0.000000e+00)) ((-9.900193e-16 -1.906474e-16 -9.143006e-02) (7.635290e-18 1.519488e-18 -3.378528e-06) (0.000000e+00 0.000000e+00 0.000000e+00))
0.091        	((6.018419e-01 1.218137e-01 8.587511e-17) (-1.205510e-04 6.705796e-04 -1.129691e-17) (0.000000e+00 0.000000e+00 0.000000e+00)) ((7.281059e-18 6.032434e-18 -9.103735e-02) (-1.278755e-17 -2.588197e-18 -3.356738e-06) (0.000000e+00 0.000000e+00 0.000000e+00))
0.092        	((5.989838e-01 1.232845e-01 -2.401756e-15) (-1.202077e-04 6.572833e-04 1.356652e-16) (0.000000e+00 0.000000e+00 0.000000e+00)) ((-1.064352e-15 -2.820681e-16 -9.062561e-02) (2.336992e-17 4.810085e-18 -3.333983e-06) (0.000000e+00 0.000000e+00 0.000000e+00))
0.093        	((5.945840e-01 1.244284e-01 1.823823e-16) (-1.197792e-04 6.439037e-04 -1.037724e-16) (0.000000e+00 0.000000e+00 0.000000e+00)) ((3.467822e-17 1.363452e-17 -8.999996e-02) (-2.156795e-17 -4.513496e-18 -3.309317e-06) (0.000000e+00 0.000000e+00 0.000000e+00))
0.094        	((5.901255e-01 1.255446e-01 -2.140194e-15) (-1.192914e-04 6.305691e-04 6.332165e-17) (0.000000e+00 0.000000e+00 0.000000e+00)) ((-1.027029e-15 -2.285806e-16 -8.936748e-02) (1.338330e-17 2.847216e-18 -3.282732e-06) (0.000000e+00 0.000000e+00 0.000000e+00))
0.095        	((5.879350e-01 1.271354e-01 3.649777e-16) (-1.186745e-04 6.169954e-04 -3.543406e-17) (0.000000e+00 0.000000e+00 0.000000e+00)) ((6.303331e-17 2.548000e-17 -8.905495e-02) (-1.295226e-17 -2.800782e-18 -3.256645e-06) (0.000000e+00 0.000000e+00 0.000000e+00))
0.096        	((5.854971e-01 1.286716e-01 -2.361484e-15) (-1.179299e-04 6.031821e-04 1.429868e-16) (0.000000e+00 0.000000e+00 0.000000e+00)) ((-1.057239e-15 -2.204726e-16 -8.869997e-02) (2.211724e-17 4.860614e-18 -3.229618e-06) (0.000000e+00 0.000000e+00 0.000000e+00))
0.097        	((5.825032e-01 1.300818e-01 -7.797363e-15) (-1.170786e-04 5.892432e-04 -1.568525e-17) (0.000000e+00 0.000000e+00 0.000000e+00)) ((-2.181928e-15 -4.992123e-16 -8.827581e-02) (-6.021572e-18 -1.344685e-18 -3.201584e-06) (0.000000e+00 0.000000e+00 0.000000e+00))
0.098        	((5.800019e-01 1.315977e-01 1.851090e-15) (-1.161953e-04 5.755223e-04 9.056495e-17) (0.000000e+00 0.000000e+00 0.000000e+00)) ((9.156987e-17 -4.435764e-17 -8.793559e-02) (1.740103e-17 3.948172e-18 -3.172947e-06) (0.000000e+00 0.000000e+00 0.000000e+00))
0.099        	((5.783117e-01 1.332980e-01 -7.576740e-15) (-1.151976e-04 5.616481e-04 -1.364365e-17) (0.000000e+00 0.000000e+00 0.000000e+00)) ((-2.154317e-15 -4.791740e-16 -8.770345e-02) (-2.094669e-18 -4.827880e-19 -3.143242e-06) (0.000000e+00 0.000000e+00 0.000000e+00))
0.1          	((5.753829e-01 1.347115e-01 1.390358e-15) (-1.140650e-04 5.475023e-04 1.616663e-16) (0.000000e+00 0.000000e+00 0.000000e+00)) ((-2.054932e-18 -2.898220e-17 -8.728547e-02) (2.971970e-17 6.958144e-18 -3.109695e-06) (0.000000e+00 0.000000e+00 0.000000e+00))
0.101        	((5.740315e-01 1.364943e-01 -8.021085e-15) (-1.129205e-04 5.336742e-04 -1.350417e-16) (0.000000e+00 0.000000e+00 0.000000e+00)) ((-2.178868e-15 -5.190617e-16 -8.711516e-02) (-4.537224e-17 -1.078867e-17 -3.076125e-06) (0.000000e+00 0.000000e+00 0.000000e+00))
0.102        	((5.721240e-01 1.381485e-01 1.037521e-15) (-1.116630e-04 5.197212e-04 2.109773e-16) (0.000000e+00 0.000000e+00 0.000000e+00)) ((-1.833075e-17 -3.666781e-17 -8.685880e-02) (4.151412e-17 1.002426e-17 -3.041664e-06) (0.000000e+00 0.000000e+00 0.000000e+00))
0.103        	((5.698817e-01 1.397221e-01 -6.963726e-15) (-1.102615e-04 5.055398e-04 -1.065996e-16) (0.000000e+00 0.000000e+00 0.000000e+00)) ((-1.960457e-15 -4.576967e-16 -8.655438e-02) (-3.398858e-17 -8.333209e-18 -3.007141e-06) (0.000000e+00 0.000000e+00 0.000000e+00))
0.104        	((5.660088e-01 1.408890e-01 1.284597e-15) (-1.087872e-04 4.914124e-04 4.040116e-16) (0.000000e+00 0.000000e+00 0.000000e+00)) ((-1.452208e-17 -1.932115e-17 -8.602165e-02) (7.370625e-17 1.834673e-17 -2.971533e-06) (0.000000e+00 0.000000e+00 0.000000e+00))
0.105        	((5.605258e-01 1.416358e-01 -7.342487e-15) (-1.071993e-04 4.771637e-04 -1.109799e-16) (0.000000e+00 0.000000e+00 0.000000e+00)) ((-2.052686e-15 -5.104504e-16 -8.526584e-02) (-3.340622e-17 -8.441189e-18 -2.934137e-06) (0.000000e+00 0.000000e+00 0.000000e+00))
0.106        	((5.573095e-01 1.429383e-01 1.661503e-15) (-1.054873e-04 4.628018e-04 1.335812e-16) (0.000000e+00 0.000000e+00 0.000000e+00)) ((5.774752e-17 1.937056e-17 -8.481576e-02) (4.196321e-17 1.076271e-17 -2.897677e-06) (0.000000e+00 0.000000e+00 0.000000e+00))
0.107        	((5.553851e-01 1.445683e-01 -7.937157e-15) (-1.035868e-04 4.480814e-04 -2.783629e-17) (0.000000e+00 0.000000e+00 0.000000e+00)) ((-2.152668e-15 -5.576553e-16 -8.454602e-02) (-2.081992e-17 -5.419463e-18 -2.861583e-06) (0.000000e+00 0.000000e+00 0.000000e+00))
0.108        	((5.495794e-01 1.451742e-01 1.307553e-15) (-1.015400e-04 4.331584e-04 1.600799e-16) (0.000000e+00 0.000000e+00 0.000000e+00)) ((-4.567414e-17 -4.080720e-17 -8.374277e-02) (5.776988e-17 1.526022e-17 -2.824269e-06) (0.000000e+00 0.000000e+00 0.000000e+00))
0.109        	((5.468652e-01 1.465796e-01 -6.366027e-15) (-9.937206e-05 4.182041e-04 -2.940169e-16) (0.000000e+00 0.000000e+00 0.000000e+00)) ((-1.984337e-15 -5.458348e-16 -8.336748e-02) (-4.092188e-17 -1.096852e-17 -2.789907e-06) (0.000000e+00 0.000000e+00 0.000000e+00))
0.11         	((5.440674e-01 1.479570e-01 1.073075e-15) (-9.709015e-05 4.032094e-04 1.636371e-16) (0.000000e+00 0.000000e+00 0.000000e+00)) ((2.440398e-17 9.342785e-18 -8.297879e-02) (4.617122e-17 1.255610e-17 -2.755683e-06) (0.000000e+00 0.000000e+00 0.000000e+00))